Name,SMILES,Solubility
"octane-1,8-diamine",[Cl-].[Cl-].[NH3+]CCCCCCCC[NH3+],0.3621421768
"(3S,4aS,8aR)-N-tert-butyl-3,4,4a,5,6,7,8,8a-octahydro-1H-isoquinolin-2-ium-3-carboxamide",CC(C)(C)NC(=O)[C@@H]1C[C@@H]2CCCC[C@H]2C[NH2+]1,-2.1616093611
"hexane-1,6-diol",OCCCCCCO,1.6264407184
2-(dimethylamino)ethyl 2-methylprop-2-enoate,CN(C)CCOC(=O)C(C)=C,0.5024815492
"disodium 2,3-dihydroxybutanedioate",[Na+].[Na+].OC(C(O)C([O-])=O)C([O-])=O,0.4110563572999999
triethyl phosphate,CCO[P](=O)(OCC)OCC,0.4385265234
5-oxo-DL-proline,OC(=O)C1CCC(=O)N1,-0.4042589172
butyraldehyde,CCCC=O,-0.1590074228
thiolane,C1CCSC1,-1.1819174748
phenyl acetate,CC(=O)Oc1ccccc1,-1.3735951622999998
chloroethane,CCCl,-1.0507488092
"4,6-dichloropyrimidine",Clc1cc(Cl)ncn1,-1.4172531143
"trisodium 4-amino-5-hydroxy-3-[(E)-2-{4-[(E)-2-[2-oxo-1-(phenylcarbamoyl)propyl]diazen-1-yl]phenyl}diazen-1-yl]-6-[(E)-2-(4-sulfonatonaphthalen-1-yl)diazen-1-yl]naphthalene-2,7-disulfonate",[Na+].[Na+].[Na+].CC(=O)C(N=Nc1ccc(cc1)N=Nc2c(N)c3c(cc2[S]([O-])(=O)=O)C=C(\C(=N/Nc4ccc(c5ccccc45)[S]([O-])(=O)=O)C3=O)[S]([O-])(=O)=O)C(=O)Nc6ccccc6,-2.2180283184
"2,4-dimethylaniline",Cc1ccc(N)c(C)c1,-1.3352536727
2-chloroaniline,Nc1ccccc1Cl,-1.3575741458
phenyl diamidophosphate,N[P](N)(=O)Oc1ccccc1,-1.4876534031
"sodium 2-{[4-(cyclohexylamino)-9,10-dioxo-9,10-dihydroanthracen-1-yl]amino}-5-ethoxybenzene-1-sulfonate",[Na+].CCOc1cccc2C(=O)c3c(Nc4ccccc4[S]([O-])(=O)=O)ccc(NC5CCCCC5)c3C(=O)c12,-1.9878367861
"2-methylpentane-1,5-diamine",CC(CN)CCCN,-1.3272487005
"6-amino-1,3-dimethyl-1,2,3,4-tetrahydropyrimidine-2,4-dione",CN1C(=CC(=O)N(C)C1=O)N,-1.4535787311
6-pent-3-en-1-yltetrahydro-2H-pyran-2-one,C/C=C/CCC1CCCC(=O)O1,-1.4887262913
potassium tetrafluoroboranuide,[K+].F[B-](F)(F)F,-1.3676388693
2-hydroxy-3-phenoxypropyl prop-2-enoate,CCCOC(=O)C(/O)=C/Oc1ccccc1,-1.6225463588
"2,6-diamino-1,4-dihydropyrimidin-4-one",NC1=CC(=O)N=C(N)N1,-1.378146596
3-amino-2-chloro-6-methylphenol,Cc1ccc(N)c(Cl)c1O,-1.4815528695
Diazobarbituric acid,[N-]=[N+]=C1C(=O)NC(=O)NC1=O,-1.4717570191
"oxydipropane-1,2-diyl bisacrylate",CC(COCC(C)OC(=O)C=C)OC(=O)C=C,-1.6682980883
pyridine-4-carboxylic acid,OC(=O)c1ccncc1,-1.3759670992
"1,4-dithiane-2,5-diol",OC1CSC(O)CS1,-1.4690382322
6-chlorohexan-2-one,CC(=O)CCCCCl,-1.4155738757
"4-(3-methyl-5-oxo-4,5-dihydro-1H-pyrazol-1-yl)benzenesulfonic acid",CC1=NN(C(=O)C1)c2ccc(cc2)[S](O)(=O)=O,-1.6926402974
toluenesulphonamide,Cc1ccccc1[S](N)(=O)=O,-1.5259868531
1-(6-methyl-2-oxohexahydropyrimidin-4-yl)urea,CC1CC(NC(N)=O)NC(=O)N1,-1.5314234319
"2-methylbenzene-1,4-diamine; sulfuric acid",Cc1cc(N)ccc1N.O[S](O)(=O)=O,-1.641347932
3-(trifluoromethyl)aniline,Nc1cccc(c1)C(F)(F)F,-1.5081956214
"4,4'-methylenebis(cyclohexylamine)",NC1CCC(CC1)CC2CCC(N)CC2,-1.6240034803
"N-(2,5-dimethoxyphenyl)acetamide",COc1ccc(OC)c(NC(C)=O)c1,-1.5915498548
potassium 4-(propan-2-yl)benzene-1-sulfonate,[K+].CC(C)c1ccc(cc1)[S]([O-])(=O)=O,0.3208872115
ammonium carbamate,[NH4+].O.NC([O-])=O,0.7115939977
sodium 4-(propan-2-yl)benzene-1-sulfonate,[Na+].CC(C)c1ccc(cc1)[S]([O-])(=O)=O,0.3460227367
trimethyl-3-[(1-oxo-10-undecenyl)amino]propylammonium methyl sulphate,CO[S]([O-])(=O)=O.C[N+](C)(C)CCCNC(=O)CCCCCCCCC=C,0.0940632128999999
"disodium bicyclo[3.3.1]tetraboroxane-3,7-bis(olate)",O.O.O.O.O.O.O.O.O.O.[Na+].[Na+].[O-]B(OB=O)OB([O-])OB=O,-0.8846418846999999
2-aminopyridin-3-ol,Nc1ncccc1O,-0.3461061519
1-ethenylazepan-2-one,C=CN1CCCCCC1=O,-0.4507860761
3-methyl-4-oxobut-2-en-1-yl acetate,CC(=O)OC\C=C(/C)C=O,-0.4607939818
boric acid,OB(O)O,-0.0992552152
calcium hydrogen borate,[Ca++].[Ca++].[Ca++].[O-]B([O-])[O-].[O-]B([O-])[O-],-0.6843417048
hexapotassium dihydrogen borate hydrogen borate borate,[K].OB(O)O,-0.3120594734
"2,2-bis(hydroxymethyl)butanoic acid",CCC(CO)(CO)C(O)=O,0.5168038544
lead(2+) ion dinitrate,[Pb++].[O-][N+]([O-])=O.[O-][N+]([O-])=O,0.1665354510999999
trisodium 2-({2-[bis(carboxylatomethyl)amino]ethyl}(2-hydroxyethyl)amino)acetate,[Na+].[Na+].[Na+].OCCN(CCN(CC([O-])=O)CC([O-])=O)CC([O-])=O,0.1444215392
"disodium 5-({4-[bis(2-hydroxyethyl)amino]-6-(phenylamino)-1,3,5-triazin-2-yl}amino)-2-{2-[4-({4-[bis(2-hydroxyethyl)amino]-6-(phenylamino)-1,3,5-triazin-2-yl}amino)-2-sulfonatophenyl]ethenyl}benzene-1-sulfonate",[Na+].[Na+].OCCN(CCO)c1nc(Nc2ccccc2)nc(Nc3ccc(\C=C\c4ccc(Nc5nc(Nc6ccccc6)nc(n5)N(CCO)CCO)cc4[S]([O-])(=O)=O)c(c3)[S]([O-])(=O)=O)n1,-1.29966008
zinc bis(2-hydroxypropanoate),[Zn++].CC(O)C([O-])=O.CC(O)C([O-])=O,-0.7035054304999999
3-methylbutanoic acid,CC(C)CC(O)=O,-0.3279248515
"trilithium 2-hydroxypropane-1,2,3-tricarboxylate tetrahydrate",[Li+].[Li+].[Li+].O.O.O.O.OC(CC([O-])=O)(CC([O-])=O)C([O-])=O,0.2218764714
(2S)-3-methyl-2-[pentanoyl-[[4-[2-(2H-tetrazol-5-yl)phenyl]phenyl]methyl]amino]butanoic acid,CCCCC(=O)N(Cc1ccc(cc1)c2ccccc2c3n[nH]nn3)[C@@H](C(C)C)C(O)=O,-2.7359260939
2-[(2-hydroxyethyl)(phenyl)amino]ethan-1-ol,OCCN(CCO)c1ccccc1,-0.5833809314
ethyl methyl carbonate,CCOC(=O)OC,-0.3444506814
magnesium(2+) ion dichloride,[Mg++].[Cl-].[Cl-],0.6922078268999999
"hexane-1,6-diamine; hexanedioic acid",NCCCCCCN.OC(=O)CCCCC(O)=O,0.2513647845
vanadium oxide sulphate,[O-][S]([O-])(=O)=O.O=[V++],0.4571186188
lithium(1+) ion perchlorate,[Li+].O.O.O.[O-][Cl](=O)(=O)=O,0.4612188619
potassium nonafluorobutane-1-sulfonate,[K+].[O-][S](=O)(=O)C(F)(F)C(F)(F)C(F)(F)C(F)(F)F,-0.8645162178
"2-[(E)-2-{4-[ethyl(2-hydroxyethyl)amino]phenyl}diazen-1-yl]-6-methoxy-3-methyl-1,3-benzothiazol-3-ium chloride",[Cl-].CCN(CCO)c1ccc(cc1)N=Nc2sc3cc(OC)ccc3[n+]2C,-0.9467714818
"2-[(E)-2-{4-[ethyl(2-hydroxyethyl)amino]phenyl}diazen-1-yl]-6-methoxy-3-methyl-1,3-benzothiazol-3-ium methyl sulfate",CCN(CCO)c1ccc(cc1)N=Nc2sc3cc(OC)ccc3[n+]2C.CO[S]([O-])(=O)=O,-1.0208150872
butyl 2-hydroxyacetate,CCCCOC(=O)CO,-0.4583389122
methyl 2-chloroacetate,COC(=O)CCl,-0.372767961
cadmium dichloride,[Cl-].[Cl-].[Cd++],0.3967110896
sodium 2-bromoethane-1-sulfonate,[Na+].[O-][S](=O)(=O)CCBr,0.332748699
"benzene-1,2-diol",Oc1ccccc1O,0.6123418909
"N,N-diethylhydroxylamine",CCN(O)CC,0.7036319098
bis(amino(imino)methanaminium) carbonate,NC(N)=N.NC(N)=N.OC(O)=O,0.3975348561999999
lithium(1+) ion acetate,[Li+].CC([O-])=O,0.8337672926999999
4-{2-[(2-methylprop-2-enoyl)oxy]ethoxy}-4-oxobutanoic acid,CC(=C)C(=O)OCCOC(=O)CCC(O)=O,-0.706708916
"(4S,4aS,5aS,6S,12aR)-7-chloro-4-(dimethylamino)-1,6,10,11,12a-pentahydroxy-3,12-dioxo-3,4,4a,5,5a,6,12,12a-octahydrotetracene-2-carboxamide hydrochloride",[Cl-].CN(C)[C@H]1[C@@H]2C[C@@H]3[C@H](O)c4c(Cl)ccc(O)c4C(=C3C(=O)[C@]2(O)C(=O)\C(=C(N)/O)C1=O)O.[H+],-1.0469016509
2-methylbutanoic acid,CCC(C)C(O)=O,-0.3559535751
diiron(3+) ion trisulfate,[Fe+3].[Fe+3].[O-][S]([O-])(=O)=O.[O-][S]([O-])(=O)=O.[O-][S]([O-])(=O)=O,1.0415240791
zinc dibromide,[Zn++].[Br-].[Br-],1.2977429939
"chromium(3+) ion pentasodium bis(8-[(4-amino-6-chloro-1,3,5-triazin-2-yl)amino]-2-[(E)-2-(5-nitro-2-oxidophenyl)diazen-1-yl]-3,6-disulfonatonaphthalen-1-olate)",[Na+].[Na+].[Na+].[Na+].[Na+].[Cr+3].Nc1nc(Cl)nc(Nc2cc(cc3cc(c(N=Nc4cc(ccc4[O-])[N+]([O-])=O)c([O-])c23)[S]([O-])(=O)=O)[S]([O-])(=O)=O)n1.Nc5nc(Cl)nc(Nc6cc(cc7cc(c(N=Nc8cc(ccc8[O-])[N+]([O-])=O)c([O-])c67)[S]([O-])(=O)=O)[S]([O-])(=O)=O)n5,-0.4949751746
sodium 3-(4-methyl-2-nitrophenoxy)propanesulphonate,[Na+].Cc1ccc(OCCC[S]([O-])(=O)=O)c(c1)[N+]([O-])=O,0.1703103591
"2-butyl-1,3-diazaspiro[4.4]non-1-en-4-one 2-butyl-1,3-diazaspiro[4.4]non-2-en-4-one dihydrochloride",Cl.Cl.CCCCC1=NC2(CCCC2)C(=O)N1.CCCCC3=NC(=O)C4(CCCC4)N3,-1.019613944
"trisodium 5-({4-chloro-6-[ethyl(phenyl)amino]-1,3,5-triazin-2-yl}amino)-4-hydroxy-3-[(E)-2-(2-sulfonatophenyl)diazen-1-yl]naphthalene-2,7-disulfonate",[Na+].[Na+].[Na+].CCN(c1ccccc1)c2nc(Cl)nc(Nc3cc(cc4C=C(\C(=N/Nc5ccccc5[S]([O-])(=O)=O)C(=O)c34)[S]([O-])(=O)=O)[S]([O-])(=O)=O)n2,-0.2667452841
zinc(2+) ion dichloride,[Cl-].[Cl-].[Zn++],0.5010006364
thymidine,CC1=CN(C2CC(O)C(CO)O2)C(=O)NC1=O,-0.7420620876999999
"2-[(E)-2-[4-(diethylamino)phenyl]ethenyl]-1,3,3-trimethyl-3H-indol-1-ium acetate",CCN(CC)c1ccc(cc1)C=CC2=[N+](C)c3ccccc3C2(C)C.CC([O-])=O,-0.9604187817
"2-[2-[4-(diethylamino)phenyl]vinyl]-1,3,3-trimethyl-3H-indolium dihydrogen phosphate",CCN(CC)c1ccc(cc1)C=CC2=[N+](C)c3ccccc3C2(C)C.O[P](O)([O-])=O,-1.0004895677
disodium 4-[(3-carboxylato-2-hydroxynaphthalen-1-yl)methyl]-3-hydroxynaphthalene-2-carboxylate,[Na].OC(=O)c1cc2ccccc2c(Cc3c(O)c(cc4ccccc34)C(O)=O)c1O,-0.9807588825
"diammonium 2,3-dihydroxybutanedioate",N.N.O[C@H]([C@@H](O)C(O)=O)C(O)=O,0.3662767625999999
5-(aminomethyl)-2-methylpyrimidin-4-amine,Cc1ncc(CN)c(N)n1,0.4903065627
manganese(2+) dinitrate,[Mn++].[O-][N+]([O-])=O.[O-][N+]([O-])=O,1.377095201
(3-{[3-(dimethylamino)propyl]amino}propyl)dimethylamine,CN(C)CCCNCCCN(C)C,0.3558508036
"2-(2,4-diaminophenoxy)ethan-1-ol dihydrochloride",[H+].[H+].[Cl-].[Cl-].Nc1ccc(OCCO)c(N)c1,0.2461592973999999
"trisodium 2-hydroxypropane-1,2,3-tricarboxylate",[Na+].[Na+].[Na+].OC(CC([O-])=O)(CC([O-])=O)C([O-])=O,0.2166530911
aluminium(3+) ion trinitrate,O.O.O.O.O.O.O.O.O.[Al+3].[O-][N+]([O-])=O.[O-][N+]([O-])=O.[O-][N](=O)=O,-0.9408131942
sodium fluoride,[F-].[Na+],-0.0021872624
1-phenylethanamine,C[C@H](N)c1ccccc1,-0.4601924093
sodium 4-(methoxycarbonyl)phenolate,[Na+].COC(=O)c1ccc([O-])cc1,0.3803001877
sodium hydrogen 2-aminopentanedioate,[Na+].NC(CCC(O)=O)C([O-])=O,0.3919616292
sodium azide,[Na+].[N-]=[N+]=[N-],0.8040134946999999
manganese(2+) ion disodium 2-({2-[bis(carboxylatomethyl)amino]ethyl}(carboxylatomethyl)amino)acetate,[Na+].[Na+].[Mn++].[O-]C(=O)CN(CCN(CC([O-])=O)CC([O-])=O)CC([O-])=O,0.024802502
diammonium oxalate,[NH4+].[NH4+].[O-]C(=O)C([O-])=O,-0.4725815013
(2S)-2-amino-4-carbamoylbutanoic acid,N[C@@H](CCC(N)=O)C(O)=O,-0.5483114193999999
(2S)-2-amino-3-methylpentanoic acid,CC[C@H](C)[C@H](N)C(O)=O,-0.5029538568
"2-[(2H-1,3-benzodioxol-5-yl)amino]ethan-1-ol hydrochloride",[H+].[Cl-].OCCNc1ccc2OCOc2c1,0.2728975009
"2,5-dihydrofuran-2,5-dione",O=C1OC(=O)C=C1,0.6181158071
disodium carbonate,[Na+].[Na+].[O-]C([O-])=O,0.581124668
"disodium 7-({bis[(2-hydroxyethyl)amino]-1,3,5-triazin-2-yl}amino)-4-hydroxy-3-[(E)-2-{4-[(E)-2-(4-sulfonatophenyl)diazen-1-yl]phenyl}diazen-1-yl]naphthalene-2-sulfonate",[Na+].[Na+].OCCNc1nc(NCCO)nc(Nc2ccc3C(=O)C(=N/Nc4ccc(cc4)N=Nc5ccc(cc5)[S]([O-])(=O)=O)\C(=Cc3c2)[S]([O-])(=O)=O)n1,-0.2836980196999999
2-methyloxirane,C[C@H]1CO1,0.8380333836
"disodium 2,2'-(azodi-p-phenylene)bis[6-methylbenzothiazole-7-sulphonate]",[Na+].[Na+].Cc1ccc2nc(sc2c1[S]([O-])(=O)=O)c3ccc(cc3)N=Nc4ccc(cc4)c5sc6c(ccc(C)c6[S]([O-])(=O)=O)n5,-1.2223096235
1-[2-(2-butoxy-1-methylethoxy)-1-methylethoxy]propan-1-ol,CCOCCCC(C)OCCOCC(C)CO,-0.790860844
(1R)-1-phenylethan-1-amine,CC(N)c1ccccc1,-0.4813817083
dipotassium zinc 2-[2-[bis(2-oxido-2-oxoethyl)amino]ethyl-(2-oxido-2-oxoethyl)amino]acetate,[K+].[K+].[Zn++].[O-]C(=O)CN(CCN(CC([O-])=O)CC([O-])=O)CC([O-])=O,0.237458201
2-[(butylcarbamoyl)oxy]ethyl prop-2-enoate,CCCCNC(=O)OCCOC(=O)C=C,-1.6348405969
(4-chlorophenyl)hydrazine,[H+].[Cl-].NNc1ccc(Cl)cc1,-1.5636654662
"3,5-dimethylaniline",Cc1cc(C)cc(N)c1,-1.4022004623
Sodium; cobalt(3+); 1-[(2-oxido-5-sulfamoylphenyl)diazenyl]naphthalen-2-olate,[Na+].[Co+3].N[S](=O)(=O)c1ccc([O-])c(c1)N=Nc2c([O-])ccc3ccccc23.N[S](=O)(=O)c4ccc([O-])c(c4)N=Nc5c([O-])ccc6ccccc56,-2.2022038482
"1,3,3-trimethyl-5-oxocyclohexane-1-carbonitrile",CC1(C)CC(=O)CC(C)(C1)C#N,-1.5404977204
4-(4-chlorophenyl)piperidin-4-ol,[H+].[Cl-].OC1(CCNCC1)c2ccc(Cl)cc2,-1.7207775313
amino(phenyl)acetic acid,[NH3+][C@@H](C([O-])=O)c1ccccc1,-1.5082784056999998
octan-1-amine dibutyl sulfanylphosphonate,CCCCCCCCN.CCCCO[P](S)(=O)OCCCC,-1.8796973024
"4-amino-N-tert-butyl-5-oxo-3-(propan-2-yl)-4,5-dihydro-1H-1,2,4-triazole-1-carboxamide",CC(C)C1=NN(C(=O)NC(C)(C)C)C(=O)N1N,-1.7188473974
4-(4-hydroxyphenyl)butan-2-one,CC(=O)CCc1ccc(O)cc1,-1.5520409413
(2H)chloroform,ClC(Cl)(Cl)[2H],-1.417811305
"4-amino-3,6-dichloropyridine-2-carboxylic acid",Nc1cc(Cl)nc(C(O)=O)c1Cl,-0.0042500518
"2,2'-({4-[(2-hydroxyethyl)amino]-3-nitrophenyl}imino)diethanol",OCCNc1ccc(cc1[N+]([O-])=O)N(CCO)CCO,-1.7953855716
aluminium(3+) ion potassium tetrafluoride,[F-].[Al+3].[K+],-1.269901072
tributoxyalumane,[Al+3].CCCC[O-].CCCC[O-].CCCC[O-],-1.7373354758
"2,4-dichlorophenol",Oc1ccc(Cl)cc1Cl,-1.5589830837
tetrasodium 8-[[4-[(4-amino-3-sulphonatophenyl)azo]-6-sulphonatonaphthyl]azo]-5-[[6-(benzoylamino)-1-hydroxy-3-sulphonato-2-naphthyl]azo]naphthalene-2-sulphonate,[Na+].[Na+].[Na+].[Na+].Nc1ccc(cc1[S]([O-])(=O)=O)N=Nc2ccc(N=Nc3ccc(N\N=C/4C(=O)c5ccc(NC(=O)c6ccccc6)cc5C=C4[S]([O-])(=O)=O)c7ccc(cc37)[S]([O-])(=O)=O)c8ccc(cc28)[S]([O-])(=O)=O,-2.3935953584
methyl 3-methylbut-2-enoate,COC(=O)C=C(C)C,-1.4140004112
"Benzoic acid, 2-hydroxy-5-[[4-[[4-[[8-hydroxy-7-[[4-[(8-hydroxy-3,6-disulfo-1-naphthalenyl)azo]-2-methoxy-5-methylphenyl]azo]-3,6-disulfo-1-naphthalenyl]amino]-6-(phenylamino)-1,3,5-triazin-2-yl]amino]phenyl]azo]-, pentasodium salt",[Na+].[Na+].[Na+].[Na+].[Na+].COc1cc(N=Nc2cc(cc3cc(cc(O)c23)[S]([O-])(=O)=O)[S]([O-])(=O)=O)c(C)cc1N=Nc4c(O)c5c(Nc6nc(Nc7ccccc7)nc(Nc8ccc(cc8)N=Nc9ccc(O)c(c9)C([O-])=O)n6)cc(cc5cc4[S]([O-])(=O)=O)[S]([O-])(=O)=O,-2.4833879664
"3-(3-methyl-5-oxo-4,5-dihydro-1H-pyrazol-1-yl)benzene-1-sulfonic acid",CC1=NN(C(=O)C1)c2cccc(c2)[S](O)(=O)=O,-1.7718215434
3-methylbut-2-en-1-yl acetate,CC(=O)OCC=C(C)C,-1.4743213171
"N,N-dimethyloctanamide",CCCCCCCC(=O)N(C)C,-1.6002483409
heptan-2-one,CCCCCC(C)=O,-1.4333383705
2-methylpentanal,CCCC(C)C=O,-1.3774493615
"hexahydro-2-benzofuran-1,3-dione",O=C1OC(=O)C2CCCCC12,-1.5647364969
"2,2-bis[(prop-2-en-1-yloxy)methyl]butan-1-ol",CCC(CO)(COCC=C)COCC=C,-1.7182484471
N-butylbutan-1-amine,CCCCNCCCC,-1.5039654481
"(1-methyl-1,2-ethanediyl)bis[oxy(methyl-2,1-ethanediyl)] diacrylate",CC(COCC(C)OC(=O)C=C)OCC(C)OC(=O)C=C,-1.8755690909
(2R)-2-methyloxirane,C[C@@H]1CO1,0.8380333836
2-(dibutylamino)ethan-1-ol,CCCCN(CCO)CCCC,-1.6367385713999998
sodium 3-[(dimethylcarbamothioyl)sulfanyl]propane-1-sulfonate,[Na+].CN(C)C(=S)SCCC[S]([O-])(=O)=O,0.1779035996
"tetrasodium 4-amino-5-hydroxy-6-[(E)-2-{2-methoxy-5-[2-(sulfonatooxy)ethanesulfonyl]phenyl}diazen-1-yl]-3-[(E)-2-{4-[2-(sulfonatooxy)ethanesulfonyl]phenyl}diazen-1-yl]naphthalene-2,7-disulfonate",[Na+].[Na+].[Na+].[Na+].COc1ccc(cc1N\N=C/2C(=O)c3c(N)c(N=Nc4ccc(cc4)[S](=O)(=O)CCO[S]([O-])(=O)=O)c(cc3C=C2[S]([O-])(=O)=O)[S]([O-])(=O)=O)[S](=O)(=O)CCO[S]([O-])(=O)=O,-0.4161044822999999
3-amino-4-methylbenzamide,Cc1ccc(cc1N)C(N)=O,-0.5767319197
"1,3-thiazol-5-ylmethanol",OCc1scnc1,0.5257355357
"(2S,4R)-1-acetyl-4-hydroxypyrrolidine-2-carboxylic acid",CC(=O)N1C[C@@H](O)C[C@H]1C([O-])=O,0.3449927217
"5-(benzoylamino)-4-hydroxy-3-[[1-sulpho-6-[[2-(sulphooxy)ethyl]sulphonyl]-2-naphthyl]azo]naphthalene-2,7-disulphonic acid, sodium salt",[Na+].[Na+].[Na+].[Na+].[O-][S](=O)(=O)OCC[S](=O)(=O)c1ccc2c(ccc(N\N=C/3C(=O)c4c(NC(=O)c5ccccc5)cc(cc4C=C3[S]([O-])(=O)=O)[S]([O-])(=O)=O)c2[S]([O-])(=O)=O)c1,-0.3893149412
"tetrasodium 2,2'-ethene-1,2-diylbis[5-({4-morpholin-4-yl-6-[(4-sulfonatophenyl)amino]-1,3,5-triazin-2-yl}amino)benzenesulfonate]",[Na].[Na].[Na].[Na].CNc1ccc(/C=C/c2ccc(Nc3nc(Nc4ccc(cc4)[S]([O-])(=O)=O)nc(n3)N5CCOCC5)cc2[S]([O-])(=O)=O)c(c1)[S]([O-])(=O)=O.Cc6nc(Nc7ccc(cc7)[S]([O-])(=O)=O)nc(n6)N8CCOCC8,-0.4843358104999999
Trimethylsulfoxonium iodide,[I-].C[S+](C)(C)=O,-0.7568844320999999
"4-methylbenzene-1,3-diamine",Cc1ccc(N)cc1N,-0.5071845321
diaminotoluene,Cc1cc(N)ccc1N,-0.5071845321
Cobalt sulfate heptahydrate,O.O.O.O.O.O.O.[Co++].[O-][S]([O-])(=O)=O,0.1271332296
sodium (dimethylcarbamothioyl)sulfanide,[Na+].CN(C)C([S-])=S,0.4168921924
tris[4-(diethylamino)phenyl]methylium acetate,CCN(CC)c1ccc(cc1)[C+](c2ccc(cc2)N(CC)CC)c3ccc(cc3)N(CC)CC.CC([O-])=O,-0.1395608978999999
ammonium chloride,[NH4+].[Cl-],0.8422541039
3-morpholin-4-yloxadiazol-3-ium-5-amine chloride,[Cl-].Nc1cn(n[o+]1)N2CCOCC2,0.1471983169
(2Z)-4-butoxy-4-oxobut-2-enoic acid,CCCCOC(=O)\C=C/C(O)=O,-0.6677809794
5-[(2-hydroxyethyl)amino]-2-methylphenol,Cc1ccc(NCCO)cc1O,-0.6550553282
"p-[4,5-dihydro-4-[[2-methoxy-5-methyl-4-[[2-(sulphooxy)ethyl]sulphonyl]phenyl]azo]-3-methyl-5-oxo-1H-pyrazol-1-yl]benzenesulphonic acid, sodium salt",[Na+].[Na+].COc1cc(c(C)cc1N=NC2C(=NN(C2=O)c3ccc(cc3)[S]([O-])(=O)=O)C)[S](=O)(=O)CCO[S]([O-])(=O)=O,-0.2390039262
(2S)-4-hydroxypyrrolidine-2-carboxylic acid,OC1CNC(C1)C(O)=O,0.4399221153
sodium 4-[(3-amino-4-methylbenzoyl)amino]benzenesulfonate,[Na+].Cc1ccc(cc1N)C(=O)Nc2ccc(cc2)[S]([O-])(=O)=O,-0.9492775868
ethyl 2-methylbut-3-enoate,CCOC(=O)C(C)C=C,-1.5763108556999998
N-methylhydrazinecarbothioamide,CNC(=S)NN,-0.465572855
potassium chloride,[Cl-].[K+],0.6777748798000001
naphthalene-2-sulfonic acid,O[S](=O)(=O)c1ccc2ccccc2c1,0.230443278
dimethyl 2-methylenesuccinate,COC(=O)CC(=C)C(=O)OC,-0.653770318
2-(2-phenoxyethoxy)ethan-1-ol,OCCOCCOc1ccccc1,-0.7165256146
"7-hydroxy-3,7-dimethyloctanal",CC(CCCC(C)(C)O)CC=O,-0.6921365673000001
N-propylpropan-1-amine,CCCNCCC,-0.461082427
aniline,Nc1ccccc1,-0.4250168953
sodium hydrogen-5-sulphoisophthalate,[Na+].OC(=O)c1cc(cc(c1)[S]([O-])(=O)=O)C(O)=O,0.1093959475
"hexasodium 8-{[(2E)-6-chloro-4-[(4-{[(4Z)-6-chloro-4-({8-oxido-6-sulfo-3-sulfonato-7-[(E)-2-(2-sulfonatophenyl)diazen-1-yl]naphthalen-1-yl}imino)-4,5-dihydro-1,3,5-triazin-2-yl]amino}phenyl)amino]-1,2-dihydro-1,3,5-triazin-2-ylidene]amino}-3-sulfo-6-sulfonato-2-[(E)-2-(2-sulfonatophenyl)diazen-1-yl]naphthalen-1-olate",[Na+].[Na+].[Na+].[Na+].[Na+].[Na+].[O-][S](=O)(=O)c1cc(Nc2nc(Cl)nc(Nc3ccc(Nc4nc(Cl)nc(Nc5cc(cc6C=C(/C(=N/Nc7ccccc7[S]([O-])(=O)=O)C(=O)c56)[S]([O-])(=O)=O)[S]([O-])(=O)=O)n4)cc3)n2)c8C(=O)C(=N/Nc9ccccc9[S]([O-])(=O)=O)\C(=Cc8c1)[S]([O-])(=O)=O,-0.6303809029
methyl(triphenyl)phosphonium bromide,[Br-].C[P+](c1ccccc1)(c2ccccc2)c3ccccc3,-0.0189230333
1-methylpyridinium chloride,[Cl-].C[n+]1ccccc1,0.4201828890999999
"trisodium 7-{2-[2-(carbamoylamino)-4-{[4-({2-[2-(ethenesulfonyl)ethoxy]ethyl}amino)-6-fluoro-1,3,5-triazin-2-yl]amino}phenyl]diazen-1-yl}naphthalene-1,3,6-trisulfonate",[Na+].[Na+].[Na+].NC(=O)Nc1cc(Nc2nc(F)nc(NCCOCC[S](=O)(=O)C=C)n2)ccc1N=Nc3cc4c(cc(cc4[S]([O-])(=O)=O)[S]([O-])(=O)=O)cc3[S]([O-])(=O)=O,-0.4145597239
2-ethyl-3-methylpyrazine,CCc1nccnc1C,0.4445107882999999
hydroxyazanium chloride,[H+].[Cl-].NO,0.6895503556999999
N-(prop-2-enamidomethyl)prop-2-enamide,C=CC(=O)NCNC(=O)C=C,-0.6552426764
L-sorbosonic acid,OC[C@H](O)[C@@H](O)[C@H](O)C(=O)C(O)=O,0.2373207652
Methyl morpholine oxide,C[N+]1([O-])CCOCC1,0.4563099285
tris(2-hydroxyethanaminium) citrate,[NH3+]CCO.[NH3+]CCO.[NH3+]CCO.OC(CC([O-])=O)(CC([O-])=O)C([O-])=O,-0.0501601163999999
sodium 2-[(2-aminoethyl)amino]ethanesulfonate,[Na+].NCCNCC[S]([O-])(=O)=O,0.2445359542
"trisodium 2-[(E)-2-{4-[(E)-2-{4-[(4-amino-6-chloro-1,3,5-triazin-2-yl)amino]-5-sulfonatonaphthalen-1-yl}diazen-1-yl]-2,5-dimethylphenyl}diazen-1-yl]benzene-1,4-disulfonate",[Na+].[Na+].[Na+].Cc1cc(N=Nc2cc(ccc2[S]([O-])(=O)=O)[S]([O-])(=O)=O)c(C)cc1N=Nc3ccc(Nc4nc(N)nc(Cl)n4)c5c3cccc5[S]([O-])(=O)=O,-0.3869456913
potassium 3-(acryloyloxy)propane-1-sulfonate,[K+].[O-][S](=O)(=O)CCCOC(=O)C=C,1.1562683245
"trisodium 1-amino-4-[[3-[[4-chloro-6-[(3-sulphonatophenyl)amino]-1,3,5-triazin-2-yl]amino]-2,4,6-trimethyl-5-sulphonatophenyl]amino]-9,10-dihydro-9,10-dioxoanthracene-2-sulphonate",[Na+].[Na+].[Na+].Cc1c(Nc2nc(Cl)nc(Nc3cccc(c3)[S]([O-])(=O)=O)n2)c(C)c(c(C)c1Nc4cc(c(N)c5C(=O)c6ccccc6C(=O)c45)[S]([O-])(=O)=O)[S]([O-])(=O)=O,-0.4244279852
"trisodium 1-amino-4-{[3-({4-chloro-6-[(2-sulfonatophenyl)amino]-1,3,5-triazin-2-yl}amino)-2,4,6-trimethyl-5-sulfonatophenyl]amino}-9,10-dioxo-9,10-dihydroanthracene-2-sulfonate",[Na+].[Na+].[Na+].Cc1c(Nc2nc(Cl)nc(Nc3ccccc3[S]([O-])(=O)=O)n2)c(C)c(c(C)c1Nc4cc(c(N)c5C(=O)c6ccccc6C(=O)c45)[S]([O-])(=O)=O)[S]([O-])(=O)=O,-0.4244279852
4-fluoroaniline,Nc1ccc(F)cc1,-0.5272743845000001