Name,SMILES,Solubility
"5-[(4-methoxyphenyl)methyl]-3-methylimidazolidine-2,4-dione",COC1=CC=C(CC2NC(=O)N(C)C2=O)C=C1,-0.89
"2,2-bis(2-chlorophenoxy)acetic acid",O=C(O)C(OC1=C(Cl)C=CC=C1)OC1=C(Cl)C=CC=C1,-2.83
"4-(2,4-Dichlorophenoxy)-2-methoxy-1-nitrobenzene",COC1=C(C=CC(=C1)OC2=C(C=C(C=C2)Cl)Cl)[N+](=O)[O-],-5.91
ethyl 4-(ethylcarbamothioyl)piperazine-1-carboxylate,CCNC(=S)N1CCN(C(=O)OCC)CC1,-1.79
"N-[(4-chlorophenyl)carbamoyl]-2,6-difluorobenzamide",O=C(NC(=O)C1=C(F)C=CC=C1F)NC1=CC=C(Cl)C=C1,-6.54
"1-methyl-3-(2,4,6-trioxo-1,3-diazinan-5-yl)thiourea",CNC(=S)NC1C(=O)NC(=O)NC1=O,-0.46
2-(9H-fluoren-9-ylmethoxycarbonylamino)-4-methylpentanoic acid,CC(C)CC(NC(=O)OCC1C2=C(C=CC=C2)C2=C1C=CC=C2)C(=O)O,-3.74
2-[[4-(acetylsulfamoyl)phenyl]carbamoyl]benzoic acid,CC(=O)NS(=O)(=O)C1=CC=C(NC(=O)C2=C(C(=O)O)C=CC=C2)C=C1,-2.52
"3,3-diethyl-6-nitro-2-benzofuran-1-one",CCC1(C2=C(C=C(C=C2)[N+](=O)[O-])C(=O)O1)CC,-3.66
"2,2-Dibutyl-N-hydroxyhexanamide",CCCCC(CCCC)(CCCC)C(=O)NO,-4.16
Methyl 4-dimethylaminobenzoate,COC(=O)C1=CC=C(N(C)C)C=C1,-3.05
"2,3-DIMETHOXYBENZOIC ACID",COC1=CC=CC(C(=O)O)=C1OC,-2.14
4-(Hydroxyamino)benzenesulfonamide,NS(=O)(=O)C1=CC=C(NO)C=C1,-0.84
dibenzofuran-2-sulfonic acid,O=S(=O)(O)C1=CC2=C(C=C1)OC1=C2C=CC=C1,-0.47
N-Hydroxy-N-phenylbenzamide,O=C(C1=CC=CC=C1)N(O)C1=CC=CC=C1,-2.73
2-acetamido-3-phenylpropanoic acid,CC(=O)NC(CC1=CC=CC=C1)C(=O)O,-1.41
"1,1-dimethyl-3-(4-propan-2-ylphenyl)urea",CC(C)C1=CC=C(NC(=O)N(C)C)C=C1,-3.5
ethyl 2-acetamido-3-phenylpropanoate,CCOC(=O)C(CC1=CC=CC=C1)NC(C)=O,-1.86
"2-diethylamino-N-(2,6-dimethylphenyl)acetamide",CCN(CC)CC(=O)NC1=C(C)C=CC=C1C,-1.78
2-[3-(benzoyl)phenyl]propanoic acid,CC(C(=O)O)C1=CC=CC(C(=O)C2=CC=CC=C2)=C1,-3.47
"2,5,9-trimethylpyrano[5,6-f][1]benzoxol-7-one",CC1=CC2=CC3=C(OC(=O)C=C3C)C(C)=C2O1,-5.28
ethyl 2-(benzoylamino)-3-(4-hydroxyphenyl)propanoate,CCOC(=O)C(CC1=CC=C(O)C=C1)NC(=O)C1=CC=CC=C1,-3.33
2-[(4-methylphenyl)sulfonylamino]pentanedioic acid,CC1=CC=C(S(=O)(=O)NC(CCC(=O)O)C(=O)O)C=C1,-0.93
"2-(3,5-dibromo-4-oxopyridin-1-yl)-~{N},~{N}-diethylacetamide",CCN(CC)C(=O)CN1C=C(Br)C(=O)C(Br)=C1,-2.31
"2-(3,5-diiodo-4-oxopyridin-1-yl)-~{N},~{N}-diethylacetamide",CCN(CC)C(=O)CN1C=C(I)C(=O)C(I)=C1,-3.18
8-hydroxy-7-iodoquinoline-5-sulfonic acid,O=S(=O)(O)C1=C2C=CC=NC2=C(O)C(I)=C1,-2.2
"5-pentan-2-yl-5-prop-2-enyl-1,3-diazinane-2,4,6-trione",C=CCC1(C(C)CCC)C(=O)NC(=O)NC1=O,-2.36
"2,2,4-triethyl-n-hydroxyoctanamide",CCCCC(CC)CC(CC)(CC)C(=O)NO,-3.35
"2,2-diethyl-n-hydroxydecanamide",CCCCCCCCC(CC)(CC)C(=O)NO,-5.22
"N-hydroxy-4-methyl-2,2-bis(2-methylpropyl)pentanamide",CC(C)CC(CC(C)C)(CC(C)C)C(=O)NO,-4.0
"N-hydroxy-2,2-dipropyloctanamide",CCCCCCC(CCC)(CCC)C(=O)NO,-2.82
"N-hydroxy-2,2-dimethyldodecanamide",CCCCCCCCCCC(C)(C)C(=O)NO,-4.8
2-Hydroxy-1-(4-hydroxy-3-methoxyphenyl)ethanone,COC1=C(O)C=CC(C(=O)CO)=C1,-1.78
"5-butyl-5-(2-hydroxyethyl)-2-sulfanylidene-1,3-diazinane-4,6-dione",CCCCC1(CCO)C(=O)NC(=S)NC1=O,-2.17
"2-(3-hydroxy-2,5-dioxo-1-phenylpyrrolidin-3-yl)acetic acid",O=C(O)CC1(O)CC(=O)N(C2=CC=CC=C2)C1=O,-0.68
2-Ethyl-N-hydroxy-2-(4-methylbenzyl)butanamide,CCC(CC)(CC1=CC=C(C)C=C1)C(=O)NO,-3.35
2-(benzoylamino)-3-hydroxypropanoic acid,O=C(NC(CO)C(=O)O)C1=CC=CC=C1,-0.91
"(2,4-dioxo-1H-pyrimidin-5-yl)sulfamic acid",O=C1NC=C(NS(=O)(=O)O)C(=O)N1,-1.77
N-Hydroxy-2-phenyl-2-propylpentanamide,CCCC(CCC)(C(=O)NO)C1=CC=CC=C1,-2.89
"N-Hydroxy-3-mesityl-2,2-dimethylpropanamide",CC1=CC(C)=C(CC(C)(C)C(=O)NO)C(C)=C1,-3.52
2-(methyl-(phenylmethylsulfanylcarbothioyl)amino)acetic acid,CN(CC(=O)O)C(=S)SCC1=CC=CC=C1,-3.23
"4,4-diethyl-1-methyl-2-phenylpyrazolidine-3,5-dione",CCC1(CC)C(=O)N(C)N(C2=CC=CC=C2)C1=O,-2.69
"dipropyl benzene-1,2-dicarboxylate",CCCOC(=O)C1=C(C(=O)OCCC)C=CC=C1,-3.82
"diheptyl benzene-1,2-dicarboxylate",CCCCCCCOC(=O)C1=C(C(=O)OCCCCCCC)C=CC=C1,-8.56
"3-(octylamino)propane-1,2-diol",CCCCCCCCNCC(O)CO,-2.22
"3-(nonylamino)propane-1,2-diol",CCCCCCCCCNCC(O)CO,-2.64
"3-(decylamino)propane-1,2-diol",CCCCCCCCCCNCC(O)CO,-3.11
"4-(1-hydroxy-2-methylaminoethyl)benzene-1,2-diol",CNCC(O)C1=CC(O)=C(O)C=C1,-0.96
"5-(2-hydroxyethyl)-5-(3-methylbutyl)-2-sulfanylidene-1,3-diazinane-4,6-dione",CC(C)CCC1(CCO)C(=O)NC(=S)NC1=O,-2.56
"5-(2-Hydroxyethyl)-5-pentyl-2-thioxodihydro-4,6(1H,5H)-pyrimidinedione",CCCCCC1(CCO)C(=O)NC(=S)NC1=O,-2.38
"2-(5-benzyl-2,4-dioxoimidazolidin-1-yl)acetic acid",O=C(O)CN1C(=O)NC(=O)C1CC1=CC=CC=C1,-1.79
N-[4-nitro-2-(phenoxy)phenyl]methanesulfonamide,CS(=O)(=O)NC1=C(C=C(C=C1)[N+](=O)[O-])OC2=CC=CC=C2,-4.49
"5-(carbamoylamino)-4,5-dihydroxy-2-oxoimidazolidine-4-carboxylic acid",NC(=O)NC1(O)NC(=O)NC1(O)C(=O)O,-0.37
"5-(2-hydroxyethyl)-5-(2-methylpentyl)-2-sulfanylidene-1,3-diazinane-4,6-dione",CCCC(C)CC1(CCO)C(=O)NC(=S)NC1=O,-3.09
"5-(2-Ethylbutyl)-5-(2-hydroxyethyl)-2-thioxodihydro-4,6(1H,5H)-pyrimidinedione",CCC(CC)CC1(CCO)C(=O)NC(=S)NC1=O,-3.14
4-Amino-N-(6-iodo-3-pyridinyl)benzenesulfonamide,NC1=CC=C(S(=O)(=O)NC2=CN=C(I)C=C2)C=C1,-1.81
"(1,5-dimethyl-3-oxo-2-phenylpyrazol-4-yl)urea",CC1=C(NC(N)=O)C(=O)N(C2=CC=CC=C2)N1C,-1.52
"13-methyl-6,7,8,9,11,12,14,15,16,17-decahydrocyclopenta[a]phenanthrene-3,16,17-triol",CC12CCC3C4=C(C=C(O)C=C4)CCC3C1CC(O)C2O,-4.0
"2,3,4-trichloro-6-methoxyphenol",COC1=CC(Cl)=C(Cl)C(Cl)=C1O,-3.66
"5-(1-cyclohexenyl)-1,5-dimethyl-1,3-diazinane-2,4,6-trione",CN1C(=O)NC(=O)C(C)(C2=CCCCC2)C1=O,-2.91
2-(2-chlorophenoxy)-3-oxobutanoic acid,CC(=O)C(OC1=C(Cl)C=CC=C1)C(=O)O,-2.1
1-nitrosonaphthalen-2-ol,O=C1C=CC2=C(C=CC=C2)C1=NO,-2.94
"N-(2-sulfamoyl-1,3-benzothiazol-6-yl)acetamide",CC(=O)NC1=CC2=C(C=C1)N=C(S(N)(=O)=O)S2,-3.16
3-(carboxymethylsulfanyl)-3-phenylpropanoic acid,O=C(O)CSC(CC(=O)O)C1=CC=CC=C1,-1.55
2'-Hydroxy-5'-methoxychalcone,COC1=CC(C(=O)C=CC2=CC=CC=C2)=C(O)C=C1,-6.0
methyl 3-bromo-4-hydroxybenzoate,COC(=O)C1=CC(Br)=C(O)C=C1,-3.17
"4-amino-N-(5-ethyl-1,3,4-thiadiazol-2-yl)benzenesulfonamide",CCC1=NN=C(NS(=O)(=O)C2=CC=C(N)C=C2)S1,-3.12
2-[2-(2-carboxybenzoyl)oxyethoxycarbonyl]benzoic acid,O=C(O)C1=C(C(=O)OCCOC(=O)C2=C(C(=O)O)C=CC=C2)C=CC=C1,-2.83
"6,7-Dimethoxy-4-nitro-2-benzofuran-1(3H)-one",COc1cc(c2COC(=O)c2c1OC)[N+]([O-])=O,-3.21
4-(4-hydroxyphenyl)iminopentan-2-one,CC(=O)CC(C)=NC1=CC=C(O)C=C1,-3.59
"4,4-Diethyl-5-oxo-1-phenyl-4,5-dihydro-1H-pyrazol-3-yl acetate",CCC1(CC)C(=O)N(C2=CC=CC=C2)N=C1OC(C)=O,-3.54
"methyl 3,5-dihydroxy-4-methoxybenzoate",COC(=O)C1=CC(O)=C(OC)C(O)=C1,-1.6
2-amino-5-hydroxynaphthalene-1-sulfonic acid,NC1=CC=C2C(O)=CC=CC2=C1S(=O)(=O)O,-2.06
7-aminonaphthalene-1-sulfonic acid,NC1=CC2=C(S(=O)(=O)O)C=CC=C2C=C1,-2.54
2-acetamido-3-(4-hydroxyphenyl)propanoic acid,CC(=O)NC(CC1=CC=C(O)C=C1)C(=O)O,0.01
2-[(2-aminoacetyl)amino]-3-(4-hydroxyphenyl)propanoic acid,NCC(=O)NC(CC1=CC=C(O)C=C1)C(=O)O,-0.73
4-(2-hydroxyphenyl)iminopentan-2-one,CC(=O)CC(C)=NC1=C(O)C=CC=C1,-3.55
2-[(2-aminophenyl)methylideneamino]phenol,NC1=C(C=NC2=C(O)C=CC=C2)C=CC=C1,-3.64
4-methoxysulfonylbenzoic acid,COS(=O)(=O)C1=CC=C(C(=O)O)C=C1,-3.05
Cinnamyl anthranilate,NC1=C(C(=O)OCC=CC2=CC=CC=C2)C=CC=C1,-6.04
2-[(2-amino-2-phenylacetyl)amino]acetic acid,NC(C(=O)NCC(=O)O)C1=CC=CC=C1,-1.41
4-[4-(4-oxopentan-2-ylideneamino)phenyl]iminopentan-2-one,CC(=O)CC(C)=NC1=CC=C(N=C(C)CC(C)=O)C=C1,-1.89
2-(phenyl-(phenylmethylsulfanylcarbothioyl)amino)acetic acid,O=C(O)CN(C(=S)SCC1=CC=CC=C1)C1=CC=CC=C1,-3.92
"4-[(1-methoxy-1-oxo-3-phenylpropan-2-yl)amino]-4-oxo-3-[(2,2,2-trifluoroacetyl)amino]butanoic acid",COC(=O)C(CC1=CC=CC=C1)NC(=O)C(CC(=O)O)NC(=O)C(F)(F)F,-2.66
"4-aminonaphthalene-1,2-dione",NC1=CC(=O)C(=O)C2=C1C=CC=C2,-3.84
N-(9H-Fluoren-2-yl)acetamide,CC(=O)NC1=CC2=C(C=C1)C1=C(C=CC=C1)C2,-4.24
N-(5-chloro-2-nitrophenyl)acetamide,CC(=O)NC1=C(C=CC(=C1)Cl)[N+](=O)[O-],-0.99
2-(2-cyanoethylamino)-3-phenylpropanoic acid,N#CCCNC(CC1=CC=CC=C1)C(=O)O,-1.49
4-(Dipropylsulfamoyl)benzoic acid,CCCN(CCC)S(=O)(=O)C1=CC=C(C(=O)O)C=C1,-4.02
"1-(1,5-dimethyl-3-oxo-2-phenylpyrazol-4-yl)-3-ethylurea",CCNC(=O)NC1=C(C)N(C)N(C2=CC=CC=C2)C1=O,-1.83
N-(4-Chlorophenyl)-n-hydroxy-4-methylbenzamide,CC1=CC=C(C(=O)N(O)C2=CC=C(Cl)C=C2)C=C1,-4.42
4-[(4-carboxyphenyl)-phenylphosphoryl]benzoic acid,O=C(O)C1=CC=C(P(=O)(C2=CC=CC=C2)C2=CC=C(C(=O)O)C=C2)C=C1,-6.01
2-(4-oxo-1H-quinazolin-2-yl)benzenesulfonamide,NS(=O)(=O)C1=C(C2=NC3=C(C=CC=C3)C(=O)N2)C=CC=C1,-3.08
3-(propan-2-ylideneamino)-1-(9H-xanthen-9-yl)urea,CC(C)=NNC(=O)NC1C2=C(C=CC=C2)OC2=C1C=CC=C2,-4.17
"6-aminocyclohexane-1,2,3,4,5-pentol",NC1C(O)C(O)C(O)C(O)C1O,-1.41
Fumaranilic acid,O=C(O)C=CC(=O)NC1=CC=CC=C1,-2.72
4-(hydroxy-phenylphosphoryl)benzoic acid,O=C(O)C1=CC=C(P(=O)(O)C2=CC=CC=C2)C=C1,-4.07
"N-[4-[(4-methyl-1,3-thiazol-2-yl)sulfamoyl]phenyl]acetamide",CC(=O)NC1=CC=C(S(=O)(=O)NC2=NC(C)=CS2)C=C1,-4.15
"4-amino-N-(5,6,7,8-tetrahydroquinazolin-2-yl)benzenesulfonamide",NC1=CC=C(S(=O)(=O)NC2=NC3=C(C=N2)CCCC3)C=C1,-3.65
"2-[5-[(4-hydroxyphenyl)methyl]-3-methyl-2,4-dioxoimidazolidin-1-yl]acetic acid",CN1C(=O)C(CC2=CC=C(O)C=C2)N(CC(=O)O)C1=O,-0.05
2-[(2-amino-4-methylpentanoyl)amino]-3-(4-hydroxyphenyl)propanoic acid,CC(C)CC(N)C(=O)NC(CC1=CC=C(O)C=C1)C(=O)O,-1.58
1-cyclohexyl-3-(2-dimethylaminoethyl)urea,CN(C)CCNC(=O)NC1CCCCC1,-0.66
1-diethylaminopropan-2-yl 4-aminobenzoate,CCN(CC)CC(C)OC(=O)C1=CC=C(N)C=C1,-2.35
2-diethylaminopropyl 4-aminobenzoate,CCN(CC)C(C)COC(=O)C1=CC=C(N)C=C1,-2.38
2-[[2-amino-3-(4-hydroxyphenyl)propanoyl]amino]-4-methylpentanoic acid,CC(C)CC(NC(=O)C(N)CC1=CC=C(O)C=C1)C(=O)O,-2.07
"1-butyl-3-(1,5-dimethyl-3-oxo-2-phenylpyrazol-4-yl)urea",CCCCNC(=O)NC1=C(C)N(C)N(C2=CC=CC=C2)C1=O,-1.63
"[4-(furan-2-carbonyl)-2-oxido-1,2,5-oxadiazol-2-ium-3-yl]-furan-2-ylmethanone",C1=COC(=C1)C(=O)C2=NO[N+](=C2C(=O)C3=CC=CO3)[O-],-3.85
"5,8-dihydroxy-1-methyl-3,4,4a,5,6,7,8,8a-octahydro-1H-naphthalen-2-one",CC1C(=O)CCC2C(O)CCC(O)C12,-0.3
"(~{N}~{Z})-~{N}-[(2~{Z})-2-hydroxyimino-4-(2,4,4-trimethylpentan-2-yl)cyclohexylidene]hydroxylamine",CC(C)(C)CC(C)(C)C1CC/C(=N/O)/C(=N\O)/C1,-6.41
"3-(3,4-dihydroxyphenyl)-2-methylaminopropanoic acid",CNC(CC1=CC(O)=C(O)C=C1)C(=O)O,-1.02
"2-acetamido-3-(3,4-dichlorophenyl)sulfanylpropanoic acid",CC(=O)NC(CSC1=CC(Cl)=C(Cl)C=C1)C(=O)O,-2.89
3-[(4-nitrophenyl)carbamoylamino]propanoic acid,C1=CC(=CC=C1NC(=O)NCCC(=O)O)[N+](=O)[O-],-2.7
"2-acetamido-3-(2,6-dichlorophenyl)sulfanylpropanoic acid",CC(=O)NC(CSC1=C(Cl)C=CC=C1Cl)C(=O)O,-2.31
2-[bis(2-cyanoethyl)amino]-3-(4-hydroxyphenyl)propanoic acid,N#CCCN(CCC#N)C(CC1=CC=C(O)C=C1)C(=O)O,-1.68
"4-[(10,13-dimethyl-3-oxo-1,2,6,7,8,9,11,12,14,15,16,17-dodecahydrocyclopenta[a]phenanthren-17-yl)oxy]-4-oxobutanoic acid",CC12CCC(=O)C=C1CCC1C2CCC2(C)C(OC(=O)CCC(=O)O)CCC12,-5.08
"2-(5-benzyl-2,4-dioxo-3-phenylimidazolidin-1-yl)acetic acid",O=C(O)CN1C(=O)N(C2=CC=CC=C2)C(=O)C1CC1=CC=CC=C1,-2.91
"4,4-dimethylbicyclo[3.2.1]octane-2,3-dione",CC1(C)C(=O)C(=O)C2CCC1C2,-1.52
ethyl 2-hydroxy-2-phenylacetate,CCOC(=O)C(O)C1=CC=CC=C1,-1.26
"1,7-dimethyl-2-oxobicyclo[2.2.1]heptane-7-carboxylic acid",CC12CCC(CC1=O)C2(C)C(=O)O,-1.78
"(~{N}~{E})-~{N}-[(3~{Z})-3-hydroxyimino-1,7,7-trimethyl-2-bicyclo[2.2.1]heptanylidene]hydroxylamine",CC12CCC(C(=NO)C1=NO)C2(C)C,-2.52
2-phenylsulfonylpropanoic acid,CC(C(=O)O)S(=O)(=O)C1=CC=CC=C1,-0.89
2-(benzoylamino)-3-hydroxybutanoic acid,CC(O)C(NC(=O)C1=CC=CC=C1)C(=O)O,-1.23
2-(carboxymethylsulfanyl)-2-phenylacetic acid,O=C(O)CSC(C(=O)O)C1=CC=CC=C1,-1.23
2-methyl-4-oxo-4-(phenylamino)butanoic acid,CC(CC(=O)NC1=CC=CC=C1)C(=O)O,0.39
"N,N-Dimethyl-2-(phenylsulfonyl)propanamide",CC(C(=O)N(C)C)S(=O)(=O)C1=CC=CC=C1,-0.87
2-(benzoylamino)-3-methoxybutanoic acid,COC(C)C(NC(=O)C1=CC=CC=C1)C(=O)O,-1.74
2-(carboxymethylamino)-3-phenylpropanoic acid,O=C(O)CNC(CC1=CC=CC=C1)C(=O)O,-2.16
"2-(2,4,5-trichlorophenoxy)propanoic acid",CC(OC1=C(Cl)C=C(Cl)C(Cl)=C1)C(=O)O,-3.55
2-[(3-nitrobenzoyl)amino]propanoic acid,CC(C(=O)O)NC(=O)C1=CC(=CC=C1)[N+](=O)[O-],-1.8
2-(carboxymethylamino)-3-(4-hydroxyphenyl)propanoic acid,O=C(O)CNC(CC1=CC=C(O)C=C1)C(=O)O,-2.59
"(2Z,4Z,2'E,4'E)-4,4'-[(1S,2S)-1,2-Cyclohexanediyldinitrilo]bis(2-penten-2-ol)",CC(=O)C=C(C)NC1CCCCC1NC(C)=CC(C)=O,-2.11
"(5E)-5-(Diphenylhydrazono)-1,2,3,4-pentanetetrol",OCC(O)C(O)C(O)C=NN(C1=CC=CC=C1)C1=CC=CC=C1,-3.1
"17-hydroxy-17-(1-hydroxyethyl)-10,13-dimethyl-2,6,7,8,9,11,12,14,15,16-decahydro-1H-cyclopenta[a]phenanthren-3-one",CC(O)C1(O)CCC2C3CCC4=CC(=O)CCC4(C)C3CCC21C,-4.16
1-(4-fluorophenyl)-4-[4-hydroxy-4-(4-methylphenyl)piperidin-1-yl]butan-1-one,CC1=CC=C(C2(O)CCN(CCCC(=O)C3=CC=C(F)C=C3)CC2)C=C1,-4.35
"4-(3,6-dihydroxy-10,13-dimethyl-2,3,4,5,6,7,8,9,11,12,14,15,16,17-tetradecahydro-1H-cyclopenta[a]phenanthren-17-yl)pentanoic acid",CC(CCC(=O)O)C1CCC2C3CC(O)C4CC(O)CCC4(C)C3CCC12C,-4.82
"2,2'-(1,2-Ethanediyldisulfanediyl)bis(phenylacetic acid)",O=C(O)C(SCCSC(C(=O)O)C1=CC=CC=C1)C1=CC=CC=C1,-3.41
2-[[2-[[2-amino-3-(4-hydroxyphenyl)propanoyl]amino]acetyl]amino]acetic acid,NC(CC1=CC=C(O)C=C1)C(=O)NCC(=O)NCC(=O)O,-1.47
"1-(1,5-dimethyl-3-oxo-2-phenylpyrazol-4-yl)-3-phenylurea",CC1=C(NC(=O)NC2=CC=CC=C2)C(=O)N(C2=CC=CC=C2)N1C,-2.3
1-(4-hydroxy-3-methylphenyl)-3-methylbutan-1-one,CC1=C(O)C=CC(C(=O)CC(C)C)=C1,-1.98
"(1Z,2E)-N,N'-Dihydroxy-3,6-dimethyl-1,2-cyclohexanediimine",CC1CCC(C)C(=NO)C1=NO,-1.32
"(1E,2Z)-4-Ethyl-N,N'-dihydroxy-1,2-cyclohexanediimine",CCC1CCC(=NO)C(=NO)C1,-1.83
7-hydroxy-2-(4-hydroxyphenyl)-5-methoxy-8-(3-methylbut-2-enyl)chroman-4-one,COC1=CC(O)=C(CC=C(C)C)C2=C1C(=O)CC(C1=CC=C(O)C=C1)O2,-5.44
ethyl 3-bromo-4-hydroxybenzoate,CCOC(=O)C1=CC(Br)=C(O)C=C1,-3.39
2-(4-phenylphenyl)acetamide,NC(=O)CC1=CC=C(C2=CC=CC=C2)C=C1,-3.33
propyl 3-chloro-4-hydroxybenzoate,CCCOC(=O)C1=CC(Cl)=C(O)C=C1,-3.38
propyl 3-bromo-4-hydroxybenzoate,CCCOC(=O)C1=CC(Br)=C(O)C=C1,-3.51
"4-[3-(4-hydroxyphenyl)-1,1-dioxobenzo[c]oxathiol-3-yl]phenol",O=S1(=O)OC(C2=CC=C(O)C=C2)(C2=CC=C(O)C=C2)C2=C1C=CC=C2,-3.07
5-nitro-2-prop-2-enoxyaniline,C=CCOC1=C(C=C(C=C1)[N+](=O)[O-])N,-2.8
1-(4-methoxyphenyl)-1-methylurea,COC1=CC=C(N(C)C(N)=O)C=C1,-1.16
1-(4-Ethoxyphenyl)-1-methylurea,NC(=O)NN=CCOC1CCCCC1,-1.74
1-(4-ethoxyphenyl)-1-methylurea,CCOC1=CC=C(N(C)C(N)=O)C=C1,-1.66
2-butoxy-5-nitroaniline,CCCCOC1=C(C=C(C=C1)[N+](=O)[O-])N,-3.82
2-methoxy-5-methylbenzenesulfonamide,COC1=C(S(N)(=O)=O)C=C(C)C=C1,-1.53
butyl 3-chloro-4-hydroxybenzoate,CCCCOC(=O)C1=CC(Cl)=C(O)C=C1,-3.51
butyl 3-bromo-4-hydroxybenzoate,CCCCOC(=O)C1=CC(Br)=C(O)C=C1,-3.67
2-(4-chloro-2-methylphenoxy)ethanethioic S-acid,CC1=C(OCC(O)=S)C=CC(Cl)=C1,-3.16
Pentyl 3-chloro-4-hydroxybenzoate,CCCCCOC(=O)C1=CC(Cl)=C(O)C=C1,-3.95
Pentyl 3-bromo-4-hydroxybenzoate,CCCCCOC(=O)C1=CC(Br)=C(O)C=C1,-4.1
pentyl 4-hydroxy-3-iodobenzoate,CCCCCOC(=O)C1=CC(I)=C(O)C=C1,-4.22
5-nitro-2-propan-2-yloxyaniline,CC(C)OC1=C(C=C(C=C1)[N+](=O)[O-])N,-2.66
4-nitro-3-phenylphenol,C1=CC=C(C=C1)C2=C(C=CC(=C2)O)[N+](=O)[O-],-3.63
2-phenylsulfonylpropanamide,CC(C(N)=O)S(=O)(=O)C1=CC=CC=C1,-1.64
2-nitro-3-phenylphenol,C1=CC=C(C=C1)C2=C(C(=CC=C2)O)[N+](=O)[O-],-3.95
1-(4-ethoxyphenyl)-1-ethylurea,CCOC1=CC=C(N(CC)C(N)=O)C=C1,-1.85
"2-(2,4-dichlorophenoxy)ethanethioic S-acid",OC(=S)COC1=C(Cl)C=C(Cl)C=C1,-2.69
hexyl 3-chloro-4-hydroxybenzoate,CCCCCCOC(=O)C1=CC(Cl)=C(O)C=C1,-4.09
Hexyl 3-bromo-4-hydroxybenzoate,CCCCCCOC(=O)C1=CC(Br)=C(O)C=C1,-4.22
hexyl 4-hydroxy-3-iodobenzoate,CCCCCCOC(=O)C1=CC(I)=C(O)C=C1,-4.43
"3-(2,3-dimethoxyphenoxy)propane-1,2-diol",COC1=CC=CC(OCC(O)CO)=C1OC,-3.0
"3,4,5-Trichloro-2,6-dimethoxyphenol",COC1=C(O)C(OC)=C(Cl)C(Cl)=C1Cl,-3.41
"4-dimethylaminobenzene-1,3-dicarboxylic acid",CN(C)C1=C(C(=O)O)C=C(C(=O)O)C=C1,-2.02
Heptyl 3-chloro-4-hydroxybenzoate,CCCCCCCOC(=O)C1=CC(Cl)=C(O)C=C1,-4.23
Heptyl 3-bromo-4-hydroxybenzoate,CCCCCCCOC(=O)C1=CC(Br)=C(O)C=C1,-4.42
heptyl 4-hydroxy-3-iodobenzoate,CCCCCCCOC(=O)C1=CC(I)=C(O)C=C1,-4.56
4-hydroxy-5-methoxyphthalic acid,COC1=CC(C(=O)O)=C(C(=O)O)C=C1O,-1.21
2-(3-hydroxyphenyl)sulfonylphenol,O=S(=O)(C1=CC(O)=CC=C1)C1=C(O)C=CC=C1,-2.29
3-(3-hydroxyphenyl)sulfonylphenol,O=S(=O)(C1=CC(O)=CC=C1)C1=CC(O)=CC=C1,-2.33
N-Methylsulfonylcyclohexanesulfonamide,CS(=O)(=O)NS(=O)(=O)C1CCCCC1,-0.33
octyl 3-chloro-4-hydroxybenzoate,CCCCCCCCOC(=O)C1=CC(Cl)=C(O)C=C1,-4.38
Octyl 3-bromo-4-hydroxybenzoate,CCCCCCCCOC(=O)C1=CC(Br)=C(O)C=C1,-4.52
octyl 4-hydroxy-3-iodobenzoate,CCCCCCCCOC(=O)C1=CC(I)=C(O)C=C1,-4.67
Butyl 4-acetamidobenzoate,CCN(CC)C(C)C(C)OC(=O)C1=CC=C(N)C=C1,-3.42
"2-(2,4,5-trichlorophenoxy)ethanethioic S-acid",OC(=S)COC1=C(Cl)C=C(Cl)C(Cl)=C1,-2.96
"[5-(2,2-dimethyl-1,3-dioxolan-4-yl)-2,2-dimethyl-3a,5,6,6a-tetrahydrofuro[4,5-d][1,3]dioxol-6-yl] acetate",CC(=O)OC1C(C2COC(C)(C)O2)OC2OC(C)(C)OC21,-1.52
2-Hydroxy-3-phenoxy-N-phenylpropanamide,O=C(NC1=CC=CC=C1)C(O)COC1=CC=CC=C1,-2.41
2-ethoxy-N-hydroxy-N-phenylbenzamide,CCOC1=C(C(=O)N(O)C2=CC=CC=C2)C=CC=C1,-3.37
"N-[4-(4-aminophenyl)sulfonylphenyl]ethane-1,2-diamine",NCCNC1=CC=C(S(=O)(=O)C2=CC=C(N)C=C2)C=C1,-2.35
"4-amino-~{N}-[1,3-dihydroxy-2-(hydroxymethyl)propan-2-yl]benzenesulfonamide",NC1=CC=C(S(=O)(=O)NC(CO)(CO)CO)C=C1,-1.4
N-(N-Methylcarbamimidoyl)-2-naphthalenesulfonamide,CNC(=N)NS(=O)(=O)C1=CC2=C(C=CC=C2)C=C1,-3.1
2-[(2-benzamido-2-methylpropanoyl)amino]acetic acid,CC(C)(NC(=O)C1=CC=CC=C1)C(=O)NCC(=O)O,-0.56
2-Chloro-6-[(E)-(4-hydroxyphenyl)diazenyl]benzoic acid,O=C(O)C1=C(N=NC2=CC=C(O)C=C2)C=CC=C1Cl,-3.0
"Ethyl (2-{[(4-aminophenyl)sulfonyl]amino}-4-methyl-1,3-thiazol-5-yl)acetate",CCOC(=O)CC1=C(C)N=C(NS(=O)(=O)C2=CC=C(N)C=C2)S1,-2.88
4-Amino-N-(2-methyl-1-naphthyl)benzenesulfonamide,CC1=C(NS(=O)(=O)C2=CC=C(N)C=C2)C2=C(C=CC=C2)C=C1,-4.5
"2,2-dihydroxy-N,N'-bis(4-methylphenyl)propanediamide",CC1=CC=C(NC(=O)C(O)(O)C(=O)NC2=CC=C(C)C=C2)C=C1,-3.1
2-[5-[(2-hydroxy-2-oxo-1-phenylethyl)amino]pentylamino]-2-phenylacetic acid,O=C(O)C(NCCCCCNC(C(=O)O)C1=CC=CC=C1)C1=CC=CC=C1,-2.02
2-amino-9-[4-(hydroxymethyl)-1-cyclopent-2-enyl]-3H-purin-6-one,NC1=NC2=C(N=CN2C2C=CC(CO)C2)C(O)=N1,-2.3
4-(4-hydroxyphenyl)sulfonylfuran-2-sulfonamide,NS(=O)(=O)C1=CC(S(=O)(=O)C2=CC=C(O)C=C2)=CO1,-2.4
4-(4-hydroxyphenyl)sulfonylthiophene-2-sulfonamide,NS(=O)(=O)C1=CC(S(=O)(=O)C2=CC=C(O)C=C2)=CS1,-3.03
4-(4-methoxyphenyl)sulfonylfuran-2-sulfonamide,COC1=CC=C(S(=O)(=O)C2=COC(S(N)(=O)=O)=C2)C=C1,-3.02
4-(4-methoxyphenyl)sulfonylthiophene-2-sulfonamide,COC1=CC=C(S(=O)(=O)C2=CSC(S(N)(=O)=O)=C2)C=C1,-4.22
4-(3-hydroxyphenyl)sulfonylthiophene-2-sulfonamide,NS(=O)(=O)C1=CC(S(=O)(=O)C2=CC(O)=CC=C2)=CS1,-2.72
2-Amino-6-(9H-fluoren-9-ylmethoxycarbonylamino)hexanoic acid,NC(CCCCNC(=O)OCC1C2=C(C=CC=C2)C2=C1C=CC=C2)C(=O)O,-3.0
Cyproheptadine,CN1CCC(=C2C3=C(C=CC=C3)C=CC3=C2C=CC=C3)CC1,-3.09
4-[4-[(2-methylpropylamino)methyl]phenyl]sulfonylthiophene-2-sulfonamide,CC(C)CNCC1=CC=C(S(=O)(=O)C2=CSC(S(N)(=O)=O)=C2)C=C1,-1.16
N-chloro-4-methylbenzenesulfonamide,CC1=CC=C(S(=O)(=O)NCl)C=C1,-0.36
"3,5-Dichloro-2,6-dimethoxyphenol",COC1=C(Cl)C=C(Cl)C(OC)=C1O,-2.96
"2-(hydroxymethyl)-1,5-dimethylspiro[8-oxatricyclo[7.2.1.0^{2,7}]dodec-5-ene-12,2'-oxirane]-11-ol",CC1=CC2OC3CC(O)C(C)(C2(CO)CC1)C31CO1,-2.61
1-tert-butyl-6-fluoro-4-oxo-7-piperazin-1-ylquinoline-3-carboxylic acid,CC(C)(C)N1C=C(C(=O)O)C(=O)C2=C1C=C(N1CCNCC1)C(F)=C2,-3.43
Asenapine,CN1CC2C3=C(C=CC=C3)OC3=C(C=C(Cl)C=C3)C2C1,-2.13
6-fluoro-2-(5-nitrofuran-2-yl)-1H-benzimidazole,C1=CC2=C(C=C1F)NC(=N2)C3=CC=C(O3)[N+](=O)[O-],-4.0
(5-ethynyl-1-azabicyclo[2.2.2]octan-7-yl)-(6-methoxyquinolin-4-yl)methanol,C#CC1CN2CCC1CC2C(O)C1=CC=NC2=C1C=C(OC)C=C2,-2.12
decylsulfanylmethanimidamide,CCCCCCCCCCSC(=N)N,-2.71
ethyl 4-methylpiperazine-1-carboxylate,CCOC(=O)N1CCN(C)CC1,1.13
"ethyl 2,5-dimethylpiperazine-1-carboxylate",CCOC(=O)N1CC(C)NCC1C,0.65
2-methylacridin-9-amine,CC1=CC2=C(N)C3=C(C=CC=C3)N=C2C=C1,-2.39
4-methylsulfonylbenzenecarboximidamide,CS(=O)(=O)C1=CC=C(C(=N)N)C=C1,-1.38
"2,5-dimethylpiperazine-1,4-dicarboximidamide",CC1CN(C(=N)N)C(C)CN1C(=N)N,0.02
2-fluoroacridin-9-amine,NC1=C2C=C(F)C=CC2=NC2=C1C=CC=C2,-2.4
3-Fluoro-9-acridinamine,NC1=C2C=CC(F)=CC2=NC2=C1C=CC=C2,-2.12
4-Fluoro-9-acridinamine,NC1=C2C=CC=C(F)C2=NC2=C1C=CC=C2,-1.66
1-fluoroacridin-9-amine,NC1=C2C(F)=CC=CC2=NC2=C1C=CC=C2,-0.95
1-chloroacridin-9-amine,NC1=C2C(Cl)=CC=CC2=NC2=C1C=CC=C2,-1.58
1-decylpiperidine,CCCCCCCCCCN1CCCCC1,-1.53
2-chloroacridin-9-amine,NC1=C2C=C(Cl)C=CC2=NC2=C1C=CC=C2,-2.42
3-chloroacridin-9-amine,NC1=C2C=CC(Cl)=CC2=NC2=C1C=CC=C2,-1.73