Name,SMILES,Solubility
Indanthren Rubine rs,CCn1nc2cc(cc3C(=O)c4ccccc4c1c23)c5cc6nn(CC)c7c8ccccc8C(=O)c(c5)c67,-4.3931837232
"16,23-dihydronaphth[2',3':6,7]indolo[2,3-c]dinaphtho[2,3-a:2'3'-i]carbazole-5,10,15,17,22,24-hexone",O=C1c2ccccc2C(=O)c3c4[nH]c5c6C(=O)c7ccccc7C(=O)c6c8[nH]c9c(ccc%10C(=O)c%11ccccc%11C(=O)c9%10)c8c5c4ccc13,-4.5096151077
16-Nitroviolanthrone,[O-][N+](=O)c1cc2c3ccccc3C(=O)c4ccc5c6ccc7C(=O)c8ccccc8c9ccc(c6c79)c1c5c24,-4.3992383437
"4-[(4-ethoxyphenyl)amino]-N,N-dimethyl-3-nitrobenzene-1-sulfonamide",CCOc1ccc(Nc2ccc(cc2[N+]([O-])=O)[S](=O)(=O)N(C)C)cc1,-4.2617516212
Calcoloid Olive r,O=C(Nc1cc2c([nH]c3c2cc(NC(=O)c4ccccc4)c5C(=O)c6ccccc6C(=O)c35)c7C(=O)c8ccccc8C(=O)c17)c9ccccc9,-4.5222231174
"dibromopyranthrene-8,16-dione",Brc1ccc2c3cc4ccc5C(=O)c6ccccc6c7cc8ccc(C(=O)c2c1Br)c3c8c4c57,-4.4504277175
1-[2-dimethylamino-1-(4-methoxyphenyl)ethyl]cyclohexan-1-ol,COc1ccc(cc1)C(CN(C)C)C2(O)CCCCC2,0.2567187446
Acid Black 52,[Na+].[Na+].[Cr].[Cr].Oc1ccc2ccccc2c1N\N=C/3C(=O)C=C(c4cc(ccc34)[N+]([O-])=O)[S](O)(=O)=O.Oc5ccc6ccccc6c5N\N=C/7C(=O)C=C(c8cc(ccc78)[N+]([O-])=O)[S]([O-])(=O)=O.Oc9ccc%10ccccc%10c9N\N=C/%11C(=O)C=C(c%12cc(ccc%11%12)[N+]([O-])=O)[S]([O-])(=O)=O,-5.1661846252
dodecyl prop-2-enoate,CCCCCCCCCCCCOC(=O)C=C,-4.3809109776
pentaaluminium triyttrium dodecaoxide,[O--].[O--].[O--].[Al+3].[Y+3],-4.2145392055
rhodium(3+) ion triiodide,[Rh+3].[I-].[I-].[I-],-4.6845024567
tetradecyl prop-2-enoate,CCCCCCCCCCCCCCOC(=O)C=C,-4.428848848
"3-({3-carboxy-1,4,5,6,7,7-hexachlorobicyclo[2.2.1]hept-5-ene-2-carbonyloxy}carbonyl)-1,4,5,6,7,7-hexachlorobicyclo[2.2.1]hept-5-ene-2-carboxylic acid",ClC1=C(Cl)C2(Cl)C3C(C(=O)OC3=O)C1(Cl)C2(Cl)Cl,-5.1712348525
"2-{[2-(acetyloxy)ethyl]({4-[(E)-2-(2-chloro-4,6-dinitrophenyl)diazen-1-yl]-5-acetamido-2-methoxyphenyl})amino}ethyl acetate",COc1cc(N=Nc2c(Cl)cc(cc2[N+]([O-])=O)[N+]([O-])=O)c(NC(C)=O)cc1N(CCOC(C)=O)CCOC(C)=O,-5.4630997896
methyl 5-amino-4-cyano-3-methylthiophene-2-carboxylate,COC(=O)c1sc(N)c(C#N)c1C,-4.9917376214
dimethyl octadecylphosphonate,CCCCCCCCCCCCCCCCCC[P](=O)(OC)OC,-5.529966163099999
(9Z)-N-(2-hydroxypropyl)octadec-9-enamide,CCCCCCCC\C=C/CCCCCCCC(=O)NCC(C)O,-5.530921640800001
aluminium(3+) ion bis(hydrogen phosphonatooxy)phosphinate,[Al+3].[O-][P]([O-])(=O)O[P]([O-])(=O)O[P]([O-])([O-])=O,-5.6688423383
"2-hydroxy-1-{1-[4-(2-hydroxy-2-methylpropanoyl)phenyl]-1,3,3-trimethyl-2,3-dihydro-1H-inden-5-yl}-2-methylpropan-1-one",CC(C)(O)C(=O)c1ccc(cc1)C2(C)CC(C)(C)c3cc(ccc23)C(=O)C(C)(C)O,-5.9372904598
"2-hydroxy-1-{3-[4-(2-hydroxy-2-methylpropanoyl)phenyl]-1,1,3-trimethyl-2,3-dihydro-1H-inden-5-yl}-2-methylpropan-1-one",CC(C)(O)C(=O)c1ccc(cc1)C2(C)CC(C)(C)c3ccc(cc23)C(=O)C(C)(C)O,-5.9638494884
"(6E)-7,11-dimethyl-3-methylidenedodeca-1,6,10-triene",CC(C)=CCC\C(C)=C\CCC(=C)C=C,-6.3103895185
"3-{[bis(2,6-dimethylphenoxy)phosphoryl]oxy}phenyl bis(2,6-dimethylphenyl) phosphate",Cc1cccc(C)c1O[P](=O)(Oc2cccc(O[P](=O)(Oc3c(C)cccc3C)Oc4c(C)cccc4C)c2)Oc5c(C)cccc5C,-6.8367531336
4-(4-butylcyclohexyl)cyclohexan-1-one,CCCCC1CCC(CC1)C2CCC(=O)CC2,-6.3736456351
tetraoctylstannane,CCCCCCCC[Sn](CCCCCCCC)(CCCCCCCC)CCCCCCCC,-6.7570975386
tris(triphenylphosphine)rhodium (I) chloride,[Cl].[Rh].c1ccc(cc1)P(c2ccccc2)c3ccccc3.c4ccc(cc4)P(c5ccccc5)c6ccccc6.c7ccc(cc7)P(c8ccccc8)c9ccccc9,-7.0120095436000005
"11-methyldodecyl 2-{[(3,5-di-tert-butyl-4-hydroxyphenyl)methyl]sulfanyl}acetate",CC(C)CCCCCCCCCCOC(=O)CSCc1cc(c(O)c(c1)C(C)(C)C)C(C)(C)C,-6.7895895249
dichlorobis(triphenylphosphine)palladium,[Cl-].[Cl-].[Pd++].c1ccc(cc1)P(c2ccccc2)c3ccccc3.c4ccc(cc4)P(c5ccccc5)c6ccccc6,-7.0267374942
4-[9-(4-amino-3-chlorophenyl)-9H-fluoren-9-yl]-2-chloroaniline,Nc1ccc(cc1Cl)C2(c3ccc(N)c(Cl)c3)c4ccccc4c5ccccc25,-6.9044856274
Solvent red 135,Clc1c(Cl)c(Cl)c2C3=Nc4cccc5cccc(N3C(=O)c2c1Cl)c45,-7.1336144776
3-hydroxy-2-(3-hydroxyquinolin-2-yl)-1H-inden-1-one,OC1=Cc2ccccc2NC1=C3C(=O)c4ccccc4C3=O,-7.0463600735
"1,3,5-tris(4-tert-butyl-3-hydroxy-2,6-dimethylbenzyl)-1,3,5-triazinane-2,4,6-trione",Cc1cc(c(O)c(C)c1CN2C(=O)N(Cc3c(C)cc(c(O)c3C)C(C)(C)C)C(=O)N(Cc4c(C)cc(c(O)c4C)C(C)(C)C)C2=O)C(C)(C)C,-7.5440264742
"1,4-bis[(2,6-diethyl-4-methylphenyl)amino]-9,10-dihydroanthracene-9,10-dione",CCc1cc(C)cc(CC)c1Nc2ccc(Nc3c(CC)cc(C)cc3CC)c4C(=O)c5ccccc5C(=O)c24,-7.423828912
"1,4-bis[(2-ethyl-6-methylphenyl)amino]-9,10-dihydroanthracene-9,10-dione",CCc1cccc(C)c1Nc2ccc(Nc3c(C)cccc3CC)c4C(=O)c5ccccc5C(=O)c24,-7.3753013985
"14h-Benz[4,5]isoquino[2,1-a]perimidin-14-one",O=C1N2c3cccc4cccc(N=C2c5cccc6cccc1c56)c34,-7.204596088300001
"2-methyl-4,6-bis[(octylsulfanyl)methyl]phenol",CCCCCCCCSCc1cc(C)c(O)c(CSCCCCCCCC)c1,-7.3271136165
"4-{[bis(octylsulfanyl)-1,3,5-triazin-2-yl]amino}-2,6-di-tert-butylphenol",CCCCCCCCSc1nc(Nc2cc(c(O)c(c2)C(C)(C)C)C(C)(C)C)nc(SCCCCCCCC)n1,-7.469064653099999
hexadecyl acetate,CCCCCCCCCCCCCCCCOC(C)=O,-7.397152994400001
"1,4-bis(2-ethylhexyl) butanedioate",CCCCC(CC)COC(=O)CCC(=O)OCC(CC)CCCC,-7.835715931
tetrakis(2-ethylbutyl) silicate,CCC(CC)CO[Si](OCC(CC)CC)(OCC(CC)CC)OCC(CC)CC,-8.1906449159
"2,6-di-tert-butyl-4-[(3,5-di-tert-butyl-4-hydroxyphenyl)methyl]phenol",CC(C)(C)c1cc(Cc2cc(c(O)c(c2)C(C)(C)C)C(C)(C)C)cc(c1O)C(C)(C)C,-8.6280505595
"Decanoic acid, ester with 2,2-bis(hydroxymethyl)-1,3-propanediol 2-ethylhexanoate octanoate",CCCCCCCCC(O)=O.CCCCCCCC(O)=O.CCCCC(CC)C(O)=O.OCC(CO)(CO)CO,-8.7655314659
octanoyl octaneperoxoate,CCCCCCCC(=O)OOC(=O)CCCCCCC,-7.6118931699
hexabromocyclododecane,BrC1CC(Br)CC(Br)CC(Br)CC(Br)CC(Br)C1,-6.9904281999
anthracene,c1ccc2cc3ccccc3cc2c1,-6.4448105798
"N-(2,5-dichloro-4-{4-[(E)-2-(2,5-dichlorophenyl)diazen-1-yl]-3-hydroxynaphthalene-2-amido}phenyl)-4-[(E)-2-(2,5-dichlorophenyl)diazen-1-yl]-3-hydroxynaphthalene-2-carboxamide",Clc1ccc(Cl)c(N\N=C2/C(=O)C(=Cc3ccccc23)C(=O)Nc4cc(Cl)c(NC(=O)C5=Cc6ccccc6C(=N/Nc7cc(Cl)ccc7Cl)\C5=O)cc4Cl)c1,-8.1508681249
dodecane-1-thiol,CCCCCCCCCCCCS,-7.573831768200001
methane niobium,C.[Nb],-7.6358227076
"9,10-anthraquinone",O=C1c2ccccc2C(=O)c3ccccc13,-6.0397604981
calcium bis(4-[(E)-2-{1-[(2-methylphenyl)carbamoyl]-2-oxopropyl}diazen-1-yl]-3-nitrobenzene-1-sulfonate),[Ca++].Cc1ccccc1NC(=O)CC(=O)CN=Nc2ccc(cc2[N+]([O-])=O)[S]([O-])(=O)=O.Cc3ccccc3NC(=O)CC(=O)CN=Nc4ccc(cc4[N+]([O-])=O)[S]([O-])(=O)=O,-7.7398036692
"ethenyl 6,6-dimethylheptanoate",CC(C)(C)CCCCC(=O)OC=C,-7.1224610466
"4-[(3S)-1,3-bis(5-cyclohexyl-4-hydroxy-2-methylphenyl)butyl]-2-cyclohexyl-5-methylphenol",C[C@@H](C[C@H](c1cc(C2CCCCC2)c(O)cc1C)c3cc(C4CCCCC4)c(O)cc3C)c5cc(C6CCCCC6)c(O)cc5C,-7.396502026799999
dialuminium(3+) ion trisulfate,O.O.O.O.O.O.O.O.O.[Al+3].[Al+3].[O-][S]([O-])(=O)=O.[O-][S]([O-])(=O)=O.[O-][S]([O-])(=O)=O,-7.4985586512
"1,1,2,2,3,3,4,5,5,6-decafluoro-4,6-bis(trifluoromethyl)cyclohexane",FC(F)(F)C1(F)C(F)(F)C(F)(F)C(F)(F)C(F)(C(F)(F)F)C1(F)F,-7.602120788300001
octadecafluorodecahydronaphthalene,FC1(F)C(F)(F)C(F)(F)C2(F)C(F)(F)C(F)(F)C(F)(F)C(F)(F)C2(F)C1(F)F,-7.6647115323
octadecafluorooctane,FC(F)(F)C(F)(F)C(F)(F)C(F)(F)C(F)(F)C(F)(F)C(F)(F)C(F)(F)F,-7.6415256675
"bis(1,3-benzothiazol-2-ylsulfanyl)(tert-butyl)amine",CC(C)(C)N(Sc1sc2ccccc2n1)Sc3sc4ccccc4n3,-8.3629378574
"[1,3,8,16,18,24-hexabromo-2,4,9,10,11,15,17,22,23,25-decachloro-29H,31H-phthalocyaninato(2-)-N29,N30,N31,N32]copper",Clc1c(Cl)c(Br)c2C3=NC(=Nc4n5[Cu]N6C(=N3)c7c(Cl)c(Br)c(Cl)c(Br)c7C6=NC8=NC(=Nc5c9c(Br)c(Cl)c(Br)c(Cl)c49)c%10c(Cl)c(Cl)c(Br)c(Cl)c8%10)c2c1Cl,-9.1442341106
polychloro copper phthalocyanine,Clc1cc(Cl)c2C3N=C(N=C4N5[Cu]N6C(N=C7N=C(N=C5c8c(Cl)c(Cl)c(Cl)c(Cl)c48)c9c(Cl)c(Cl)c(Cl)c(Cl)c79)c%10c(Cl)c(Cl)c(Cl)c(Cl)c%10C6=N3)c2c1Cl,-9.039324078
"1,2,3,4,5-pentabromo-6-[2-(pentabromophenyl)ethyl]benzene",Brc1c(Br)c(Br)c(CCc2c(Br)c(Br)c(Br)c(Br)c2Br)c(Br)c1Br,-9.1299878036
"1,4-bis(2-ethylhexyl) benzene-1,4-dicarboxylate",CCCCC(CC)COC(=O)c1ccc(cc1)C(=O)OCC(CC)CCCC,-8.9896322186
chromium,[Cr],-10.0169999307
samarium (III) oxide,[O--].[O--].[O--].[Sm+3].[Sm+3],-5.5588468327
dioxotungsten,O=[W]=O,-5.9557300071000006
"3,9-bis(2,4-di-tert-butylphenoxy)-2,4,8,10-tetraoxa-3,9-diphosphaspiro[5.5]undecane",CC(C)(C)c1ccc(O[P@]2OC[C@]3(CO2)CO[P@](OC3)Oc4ccc(cc4C(C)(C)C)C(C)(C)C)c(c1)C(C)(C)C,-6.813060611
"Decanoic acid, mixed esters with neopentyl glycol and octanoic acid",CCCCCCCCCC(O)=O.CCCCCCCC(O)=O.CC(C)(CO)CO,-6.6558855625
"propan-2-yl 3-[(Z)-2-{3-[(2,5-dichloro-4-{3-hydroxy-4-[(Z)-2-{2-methyl-5-[(propan-2-yloxy)carbonyl]phenyl}diazen-1-yl]naphthalene-2-amido}phenyl)carbamoyl]-2-hydroxynaphthalen-1-yl}diazen-1-yl]-4-methylbenzoate",CC(C)OC(=O)c1ccc(C)c(c1)N=Nc2c(O)c(cc3ccccc23)C(=O)Nc4cc(Cl)c(NC(=O)c5cc6ccccc6c(N=Nc7cc(ccc7C)C(=O)OC(C)C)c5O)cc4Cl,-7.0074879806
"3-hydroxy-N-(2-methylphenyl)-4-[(E)-2-(2,4,5-trichlorophenyl)diazen-1-yl]naphthalene-2-carboxamide",Cc1ccccc1NC(=O)C2=Cc3ccccc3C(=N/Nc4cc(Cl)c(Cl)cc4Cl)\C2=O,-7.69430966
N-(4-chlorophenyl)-2-[(4-methyl-2-nitrophenyl)diazenyl]-3-oxobutanamide,CC(=O)C(N=Nc1ccc(C)cc1[N+]([O-])=O)C(=O)Nc2ccc(Cl)cc2,-7.6052980935
cobalt sulphide,[S--].[Co++],-5.0152501934
methane; vanadium,C.[V],-6.2058415067
"4-({5-[(4-carbamoylphenyl)carbamoyl]-2-methoxyphenyl}diazenyl)-N-(5-chloro-2,4-dimethoxyphenyl)-3-hydroxy-2-naphthamide",COc1cc(OC)c(NC(=O)C2=Cc3ccccc3C(=N/Nc4cc(ccc4OC)C(=O)Nc5ccc(cc5)C(N)=O)\C2=O)cc1Cl,-7.8662401992
"N-(4-chloro-2,5-dimethoxyphenyl)-3-hydroxy-4-[(E)-2-[2-methoxy-5-(phenylcarbamoyl)phenyl]diazen-1-yl]naphthalene-2-carboxamide",COc1ccc(cc1N\N=C2/C(=O)C(=Cc3ccccc23)C(=O)Nc4cc(OC)c(Cl)cc4OC)C(=O)Nc5ccccc5,-7.8465603387
pentabromobenzyl acrylate,Brc1c(Br)c(Br)c(COC(=O)C=C)c(Br)c1Br,-7.806077004
"2-[(E)-2-(2-methoxyphenyl)diazen-1-yl]-3-oxo-N-(2-oxo-2,3-dihydro-1H-1,3-benzodiazol-5-yl)butanamide",COc1ccccc1N=NC(C(C)=O)C(=O)Nc2ccc3NC(=O)Nc3c2,-7.6305993261
phosphane,[P],-6.566718008
"N-(4-chloro-2,5-dimethoxyphenyl)-2-[(E)-2-(2-chloro-4-{3-chloro-4-[(E)-2-{1-[(4-chloro-2,5-dimethoxyphenyl)carbamoyl]-2-oxopropyl}diazen-1-yl]phenyl}phenyl)diazen-1-yl]-3-oxobutanamide",COc1cc(NC(=O)C(N=Nc2ccc(cc2Cl)c3ccc(N=NC(C(C)=O)C(=O)Nc4cc(OC)c(Cl)cc4OC)c(Cl)c3)C(C)=O)c(OC)cc1Cl,-8.0045326037
"5-methyl-2-phenyl-4-(phenyldiazenyl)-2,4-dihydro-3H-pyrazol-3-one",CC1=NN(c2ccccc2)C(=O)C1N=Nc3ccccc3,-7.5414466266
titanium dioxide,O=[Ti]=O,-4.9999945622
"bis(2-ethylhexyl) 3,4,5,6-tetrabromophthalate",CCCCC(CC)COC(=O)c1c(Br)c(Br)c(Br)c(Br)c1C(=O)OCC(CC)CCCC,-5.949075231
"2,2,3,3,5,5,6,6-octafluoro-4-(trifluoromethyl)morpholine",FC(F)(F)N1C(F)(F)C(F)(F)OC(F)(F)C1(F)F,-5.5960586261000005
silver(1+) docosanoate,[Ag+].CCCCCCCCCCCCCCCCCCCCCC([O-])=O,-6.782690091799999
"N-(5-chloro-2,4-dimethoxyphenyl)-4-[(E)-2-[5-(diethylsulfamoyl)-2-methoxyphenyl]diazen-1-yl]-3-hydroxynaphthalene-2-carboxamide",CCN(CC)[S](=O)(=O)c1ccc(OC)c(N\N=C2\C(=O)C(=Cc3ccccc23)C(=O)Nc4cc(Cl)c(OC)cc4OC)c1,-7.9052553562
neodymium oxide,[O--].[O--].[O--].[Nd+3].[Nd+3],-7.634860780499999
2-[(E)-2-(4-chloro-2-nitrophenyl)diazen-1-yl]-N-(2-chlorophenyl)-3-oxobutanamide,CC(=O)C(N=Nc1ccc(Cl)cc1[N+]([O-])=O)C(=O)Nc2ccccc2Cl,-7.721757870399999
"4-{[2,5-dimethoxy-4-(methylsulfamoyl)phenyl]diazenyl}-3-hydroxy-N-(2-oxo-2,3-dihydro-1H-benzimidazol-5-yl)-2-naphthamide",CN[S](=O)(=O)c1cc(OC)c(N\N=C2/C(=O)C(=Cc3ccccc23)C(=O)Nc4ccc5NC(=O)Nc5c4)cc1OC,-7.8916361395
C.i. Pigment Orange 43,O=C1n2c3ccccc3nc2c4ccc5C(=O)n6c7ccccc7nc6c8ccc1c4c58,-7.7579945848
"1,4-bis[(2,4,6-trimethylphenyl)amino]-9,10-dihydroanthracene-9,10-dione",Cc1cc(C)c(Nc2ccc(Nc3c(C)cc(C)cc3C)c4C(=O)c5ccccc5C(=O)c24)c(C)c1,-7.8250730454
propan-2-ylcyclohexane,CC(C)C1CCCCC1,-5.3116265943
Niobium oxide,O=[Nb](=O)O[Nb](=O)=O,-6.9474451591
dialuminium zinc tetraoxide,[O--].[O--].[O--].[O--].[O--].[Al+3].[Al+3].[Zn++].[Zn++],-7.6234773746
"1H-Thioxantheno[2,1,9-def]isoquinoline-1,3(2H)-dione, 2-octadecyl-",CCCCCCCCCCCCCCCCCCN1C(=O)c2ccc3Sc4ccccc4c5ccc(C1=O)c2c35,-7.966789170299999
"2,6,10-trimethyldodecane",CCC(C)CCCC(C)CCCC(C)C,-6.61539022
"1-ethyl-6-hydroxy-4-methyl-5-[(E)-2-(2-nitrophenyl)diazen-1-yl]-2-oxo-1,2-dihydropyridine-3-carbonitrile",CCN1C(=O)C(=N/Nc2ccccc2[N+]([O-])=O)\C(=C(C#N)C1=O)C,-6.815976001
"4-chloro-N-(5-chloro-2-methylphenyl)-3-[(E)-2-{1-[(4-{2-[(E)-2-{2-chloro-5-[(5-chloro-2-methylphenyl)carbamoyl]phenyl}diazen-1-yl]-3-oxobutanamido}-2,5-dimethylphenyl)carbamoyl]-2-oxopropyl}diazen-1-yl]benzamide",CC(=O)C(N=Nc1cc(ccc1Cl)C(=O)Nc2cc(Cl)ccc2C)C(=O)Nc3cc(C)c(NC(=O)C(N=Nc4cc(ccc4Cl)C(=O)Nc5cc(Cl)ccc5C)C(C)=O)cc3C,-7.263233538400001
"Paraffin waxes and Hydrocarbon waxes, chloro",CCCC(Cl)CCCC(Cl)CCC(Cl)CCC(Cl)CCC(Cl)CCCC(Cl)CCC,-7.9658105639
tris(2-methylphenyl) phosphite,Cc1ccccc1OP(Oc2ccccc2C)Oc3ccccc3C,-7.779843060399999
2-[(E)-2-(2-chloro-4-{3-chloro-4-[(E)-2-[2-oxo-1-(phenylcarbamoyl)propyl]diazen-1-yl]phenyl}phenyl)diazen-1-yl]-3-oxo-N-phenylbutanamide; 2-[(E)-2-(2-chloro-4-{3-chloro-4-[(E)-2-{1-[(4-methoxyphenyl)carbamoyl]-2-oxopropyl}diazen-1-yl]phenyl}phenyl)diazen-1-yl]-3-oxo-N-phenylbutanamide; 2-[(E)-2-(2-chloro-4-{3-chloro-4-[(E)-2-{1-[(4-methoxyphenyl)carbamoyl]-2-oxopropyl}diazen-1-yl]phenyl}phenyl)diazen-1-yl]-N-(4-methoxyphenyl)-3-oxobutanamide,COc1ccc(NC(=O)C(N=Nc2ccc(cc2Cl)c3ccc(N=NC(C(C)=O)C(=O)Nc4ccccc4)c(Cl)c3)C(C)=O)cc1.COc5ccc(NC(=O)C(N=Nc6ccc(cc6Cl)c7ccc(N=NC(C(C)=O)C(=O)Nc8ccc(OC)cc8)c(Cl)c7)C(C)=O)cc5.CC(=O)C(N=Nc9ccc(cc9Cl)c%10ccc(N=NC(C(C)=O)C(=O)Nc%11ccccc%11)c(Cl)c%10)C(=O)Nc%12ccccc%12,-8.5404809541
"2,9-dimethyl-5,7,12,14-tetrahydro-5,12-diazapentacene-7,14-dione",Cc1ccc2Nc3cc4C(=O)c5cc(C)ccc5Nc4cc3C(=O)c2c1,-7.7837785588
"4-[(E)-2-(2,5-dichlorophenyl)diazen-1-yl]-3-hydroxy-N-phenylnaphthalene-2-carboxamide",Clc1ccc(Cl)c(N\N=C2\C(=O)C(=Cc3ccccc23)C(=O)Nc4ccccc4)c1,-7.9073894624
"2,2'-[(3,3'-dichlorobiphenyl-4,4'-diyl)didiazene-2,1-diyl]bis[N-(4-methylphenyl)-3-oxobutanamide]",CC(=O)C(N=Nc1ccc(cc1Cl)c2ccc(N=NC(C(C)=O)C(=O)Nc3ccc(C)cc3)c(Cl)c2)C(=O)Nc4ccc(C)cc4,-8.1019307222
dysprosium,[Dy],-7.511883361000001
"1,4-Bis(4-phenoxybenzoyl)benzene",O=C(c1ccc(Oc2ccccc2)cc1)c3ccc(cc3)C(=O)c4ccc(Oc5ccccc5)cc4,-7.973611776
Aluminum;phosphenic acid,[Al+3].O[PH]([O-])=O.O[PH]([O-])=O.O[PH]([O-])=O,-4.7708809717000005
"2,2'-(1,4-phenylene)bis[4-(4-methoxybenzylidene)-1,3-oxazol-5(4H)-one]",COc1ccc(cc1)\C=C/2N=C(OC2=O)c3ccc(cc3)C4=NC(=C/c5ccc(OC)cc5)/C(=O)O4,-6.9835711537
ethyl 9-oxo-9H-thioxanthene-2-carboxylate,CCOC(=O)c1ccc2Sc3ccccc3C(=O)c2c1,-6.756602506799999
"29H,31H-phthalocyaninato(2-)-N29,N30,N31,N32 copper",[Cu]1N2C3=NC4=NC(=Nc5n1c(N=C6N=C(N=C2c7ccccc37)c8ccccc68)c9ccccc59)c%10ccccc4%10,-8.1584243143
cobaltoylol,O[Co]=O,-6.275970814500001
"1,4-bis(2-ethylhexyl) cyclohexane-1,4-dicarboxylate",CCCCC(CC)COC(=O)C1CCC(CC1)C(=O)OCC(CC)CCCC,-6.926267992300001
cobalt,[Co],-5.1171460358
2-methylheptadecyl 3-methylheptadecanoate,CC(C)CCCCCCCCCCCCCCCOC(=O)CCCCCCCCCCCCCCC(C)C,-7.0864973463
3-methylcyclopentadecanone,CC1CCCCCCCCCCCCC(=O)C1,-5.7438651202
"1,4-bis(propan-2-yl)benzene",CC(C)c1ccc(cc1)C(C)C,-6.6027992709
"4-[(1,5-dihydro-3-methyl-5-oxo-1-phenyl-4H-pyrazol-4-ylidene)methyl]-2,4-dihydro-5-methyl-2-phenyl-3H-pyrazol-3-one",CC1=NN(c2ccccc2)C(=O)C1/C=C/3C(=NN(c4ccccc4)C3=O)C,-7.8822713548
3-hydroxy-4-[(E)-2-(2-methyl-4-nitrophenyl)diazen-1-yl]-N-(2-methylphenyl)naphthalene-2-carboxamide,Cc1ccccc1NC(=O)C2=Cc3ccccc3C(=N/Nc4ccc(cc4C)[N+]([O-])=O)/C2=O,-7.981147656799999
"4-[(E)-2-(2-chloro-4-{3-chloro-4-[(E)-2-(3-methyl-5-oxo-1-phenyl-4,5-dihydro-1H-pyrazol-4-yl)diazen-1-yl]phenyl}phenyl)diazen-1-yl]-3-methyl-1-phenyl-4,5-dihydro-1H-pyrazol-5-one",CC\1=NN(C(=O)C1=N/Nc2ccc(cc2Cl)c3ccc(N\N=C4/C(=NN(C4=O)c5ccccc5)C)c(Cl)c3)c6ccccc6,-8.1416267302
"methyl 4-[(2,5-dichlorophenyl)carbamoyl]-2-({2-hydroxy-3-[(2-methoxyphenyl)carbamoyl]-1-naphthyl}diazenyl)benzoate",COC(=O)c1ccc(cc1N\N=C2/C(=O)C(=Cc3ccccc23)C(=O)Nc4ccccc4OC)C(=O)Nc5cc(Cl)ccc5Cl,-8.1750686223
"1,4-bis(butylamino)-9,10-dihydroanthracene-9,10-dione",CCCCNc1ccc(NCCCC)c2C(=O)c3ccccc3C(=O)c12,-7.9318570783
"(2E,7R,11R)-3,7,11,15-tetramethylhexadec-2-en-1-ol; (2Z,7R,11R)-3,7,11,15-tetramethylhexadec-2-en-1-ol",CC(C)CCC[C@@H](C)CCC[C@@H](C)CCC/C(C)=C/CO,-4.8617411072
docosan-1-amine; hexadecan-1-amine; icosan-1-amine; octadecan-1-amine,CCCCCCCCCCCCCCCCCCCN,-5.8571242399
"O,O,O-Triphenyl phosphorothioate",S=[P](Oc1ccccc1)(Oc2ccccc2)Oc3ccccc3,-6.9546943469
"2,6-di-tert-butyl-4-nonylphenol",[O-][N+](=O)c1ncn(CC(=O)Nc2cc(ccc2Cl)C(F)(F)F)n1,-5.968106766699999
aluminium(3+) ion dichloride hydroxide,[Al+3].[Cl-].[Cl-].[Cl-],-6.568661207100001
"2,2',6,6'-Tetrabromo-4,4'-isopropylidenediphenol, oligomeric reaction products with 1-chloro-2,3-epoxypropane",CC(C)(c1cc(Br)c(O)c(Br)c1)c2cc(Br)c(O)c(Br)c2.ClCC3CO3,-7.2735304728
"2,4,4-trimethylpentan-2-yl 2,2,3,5-tetramethylhexaneperoxoate 2,4,4-trimethylpentan-2-yl 2,2-diethylhexaneperoxoate 2,4,4-trimethylpentan-2-yl 2,2-dimethyloctaneperoxoate 2,4,4-trimethylpentan-2-yl 2,4-dimethyl-2-(propan-2-yl)pentaneperoxoate 2,4,4-trimethylpentan-2-yl 2-ethyl-2,5-dimethylhexaneperoxoate",CC(C)(C)CCCCC1(OO1)C(=O)OC(C)(C)CC(C)(C)C,-6.9712344191
"1,2-dichloro-5,12-dihydroquino[2,3-b]acridine-7,14-dione",Clc1ccc2Nc3cc4C(=O)c5ccccc5Nc4cc3C(=O)c2c1Cl,-7.0666256459
"3,3'-[[4-[(2,6-dichloro-4-nitrophenyl)azo]phenyl]imino]bispropiononitrile",[O-][N+](=O)c1cc(Cl)c(N=Nc2ccc(cc2)N(CCC#N)CCC#N)c(Cl)c1,-7.115252612100001
cobalt(2+) oxalate,[Co++].[O-]C(=O)C([O-])=O,-4.6677879254
"1,1,3,3-tetramethylbutyl 2-(ethylperoxy)hexanoate",CCCCC(CC)C(=O)OOC(C)(C)CC(C)(C)C,-5.9495319098
Cholesterol,CC(C)CCC[C@@H](C)[C@H]1CC[C@H]2[C@@H]3CC=C4C[C@@H](O)CC[C@]4(C)[C@H]3CC[C@]12C,-7.1001953639
"1,1,1,2,2,3,3,4,4,5,5,6,6-tridecafluoro-8-iodooctane",FC(F)(F)C(F)(F)C(F)(F)C(F)(F)C(F)(F)C(F)(F)CCI,-7.1886381337000005
2-methylundecane-2-thiol,CC(C)C(C)(C)C(C)(C)C(C)(C)S,-7.7118329776
N-(5-chloro-2-methoxyphenyl)-3-hydroxy-4-[(E)-2-[2-methoxy-5-(phenylcarbamoyl)phenyl]diazen-1-yl]naphthalene-2-carboxamide,COc1ccc(cc1N\N=C2/C(=O)C(=Cc3ccccc23)C(=O)Nc4cc(Cl)ccc4OC)C(=O)Nc5ccccc5,-8.1844134651
"2-[(1-amino-4-hydroxy-9,10-dioxo-9,10-dihydroanthracen-2-yl)oxy]ethyl phenyl carbonate",Nc1c(OCCOC(=O)Oc2ccccc2)cc(O)c3C(=O)c4ccccc4C(=O)c13,-8.0544153113
"2,2-bis(hydroxymethyl)propane-1,3-diyl didocosanoate",CCCCCCCCCCCCCCCCCCCCCC(=O)OCC(CO)(CO)COC(=O)CCCCCCCCCCCCCCCCCCCCC,-8.3487503358
"4-[(E)-2-(2-chloro-4-{3-chloro-4-[(E)-2-[3-methyl-1-(4-methylphenyl)-5-oxo-4,5-dihydro-1H-pyrazol-4-yl]diazen-1-yl]phenyl}phenyl)diazen-1-yl]-3-methyl-1-(4-methylphenyl)-4,5-dihydro-1H-pyrazol-5-one",Cc1ccc(cc1)N2N=C(C)C(N=Nc3ccc(cc3Cl)c4ccc(N=NC5C(=NN(c6ccc(C)cc6)C5=O)C)c(Cl)c4)C2=O,-8.2698850372
"14h-Anthra[2,1,9-mna]thioxanthen-14-one",O=C1c2ccccc2c3ccc4Sc5ccccc5c6ccc1c3c46,-7.9828073074
"propane-2,2-diylbis(4,1-phenyleneoxyethane-2,1-diyl) diacetate",CC(=O)OCCOc1ccc(cc1)C(C)(C)c2ccc(OCCOC(C)=O)cc2,-8.0585030279
"3-hydroxy-4-[(E)-2-[2-methoxy-5-methyl-4-(methylsulfamoyl)phenyl]diazen-1-yl]-N-(2-oxo-2,3-dihydro-1H-1,3-benzodiazol-5-yl)naphthalene-2-carboxamide",CN[S](=O)(=O)c1cc(OC)c(N\N=C2/C(=O)C(=Cc3ccccc23)C(=O)Nc4ccc5NC(=O)Nc5c4)cc1C,-8.2171679788
1-[(E)-2-(2-chloro-4-nitrophenyl)diazen-1-yl]naphthalen-2-ol,[O-][N+](=O)c1ccc(N\N=C2/C(=O)C=Cc3ccccc23)c(Cl)c1,-7.9969982826
1-[(E)-2-(4-methyl-2-nitrophenyl)diazen-1-yl]naphthalen-2-ol,Cc1ccc(N\N=C2/C(=O)C=Cc3ccccc23)c(c1)[N+]([O-])=O,-7.9690613395
"butyl 2-[(E)-2-{2-hydroxy-3-[(2-oxo-2,3-dihydro-1H-1,3-benzodiazol-5-yl)carbamoyl]naphthalen-1-yl}diazen-1-yl]benzoate",CCCCOC(=O)c1ccccc1N\N=C2/C(=O)C(=Cc3ccccc23)C(=O)Nc4ccc5NC(=O)Nc5c4,-8.2138073561
chromium (III) oxide,O=[Cr]O[Cr]=O,-7.6862678201
"1,2,3-propanetriyl triisooctadecanoate",CC(C)CCCCCCCCCCCCCCC(=O)OCC(COC(=O)CCCCCCCCCCCCCCC(C)C)OC(=O)CCCCCCCCCCCCCCC(C)C,-8.4587601408
"1,2,4-tris(2-ethylhexyl) benzene-1,2,4-tricarboxylate",CCCCC(CC)COC(=O)c1ccc(C(=O)OCC(CC)CCCC)c(c1)C(=O)OCC(CC)CCCC,-8.2520983426
4-[(E)-2-(4-carbamoylphenyl)diazen-1-yl]-3-hydroxy-N-(2-methoxyphenyl)naphthalene-2-carboxamide,COc1ccccc1NC(=O)C2=Cc3ccccc3C(=N/Nc4ccc(cc4)C(N)=O)/C2=O,-8.1667842337
oxotin,O=[Sn],-8.828369840499999
"2,5-dimethylhexane-2,5-diyl bis[2-(ethylperoxy)hexanoate]",CCCCC(CC)C(=O)OOC(C)(C)CCC(C)(C)OOC(=O)C(CC)CCCC,-7.188496044500001
2-tert-butyl-4-[(5-tert-butyl-4-hydroxy-2-methylphenyl)sulfanyl]-5-methylphenol,Cc1cc(O)c(cc1Sc2cc(c(O)cc2C)C(C)(C)C)C(C)(C)C,-7.112066324