Name,SMILES,Solubility
diisopropyl  2-(4-nitrophenylsulfonyl)succinate; 3-isopropoxycarbonyl-3-(4-nitrophenylsulfonyl)propanoic acid isopropyl ester,CC(C)OC(=O)CC(C(=O)OC(C)C)[S](=O)(=O)C1=CC=C(C=C1)[N+]([O-])=O,-4.29
fleroxacin,CN1CCN(CC1)C2=C(F)C3=C(C=C2F)C(=O)C(=CN3CCF)C(O)=O,-2.73
s-(-)-nadifloxacin;  jinofloxacin,CC1CCC2=C(N3CCC(O)CC3)C(=CC4=C2N1C=C(C(O)=O)C4=O)F,-3.78
n4-acetyl-n1-(1-ethyl-2-oxopyrimidin-4-yl)sulfanilamide; 4-(n4-acetylsulfanilamido)-1-ethyl-1h-pyrimidin-2-one; n4-acetylsulfacytine,CCN1C=CC(=NC1=O)N[S](=O)(=O)C2=CC=C(NC(C)=O)C=C2,-2.71
"n4-acetylsulfaethidole; 2-(n4-acetylsulfa)-5-ethyl-1,3,4-thiadiazole",CCC1=NN=C(N[S](=O)(=O)C2=CC=C(NC(C)=O)C=C2)S1,-3.4
"4-(4-bromo-2-fluorophenylamino)-1,5-dimethyl-6-oxo-1,6-dihydropyridine-3-carboxylic acid methoxyamide",CONC(=O)C1=CN(C)C(=O)C(=C1NC2=CC=C(Br)C=C2F)C,-3.28
coroxon,CCO[P](=O)(OCC)OC1=CC2=C(C=C1)C(=C(Cl)C(=O)O2)C,-3.18
"acyclovir ester iii,  o-[(4-dimethylaminomethyl)benzoyl]acyclovir",CN(C)CC1=CC=C(C=C1)C(=O)OCCOC[N]2C=NC3=C2N=C(N)NC3=O,-2.47
n3-[(3-hydroxy-2-hydroxymethyl)propanoyloxymethyl]phenytoin,OCC(CO)C(=O)OCN1C(=O)NC(C1=O)(C2=CC=CC=C2)C3=CC=CC=C3,-2.21
"ketoprofen,  ester 4c; n-methyl-n-[2-(2'-(3''-benzoyl-phenyl)propanoyloxy)acetyl]glycineamide",CC(C(=O)OCC(=O)N(C)CC(N)=O)C1=CC(=CC=C1)C(=O)C2=CC=CC=C2,-2.42
7-pentyl-benz[a]anthracene,CCCCCC1=C2C=CC3=C(C=CC=C3)C2=CC4=C1C=CC=C4,-8.57
"2,2',3,3',4,4',5,5'-octachlorodiphenyl  ether",ClC1=CC(=C(Cl)C(=C1Cl)Cl)OC2=CC(=C(Cl)C(=C2Cl)Cl)Cl,-10.1
"4-(4-bromo-2-fluorophenylamino)-n-ethoxy-1,5-dimethyl-6-oxo-1,6-dihydropyridine-3-carboxamide",CCONC(=O)C1=CN(C)C(=O)C(=C1NC2=C(F)C=C(Br)C=C2)C,-3.82
"5,5-diphenylhydantoin-3-methyl  octanoate",CCCCCCCC(=O)OCN1C(=O)NC(C1=O)(C2=CC=CC=C2)C3=CC=CC=C3,-6.52
2-bromo-4-nitro-1-sulfanilamidobenzene;  2-bromo-4-nitro-1-sulfabenzene,NC1=CC=C(C=C1)[S](=O)(=O)NC2=CC=C(C=C2Br)[N+]([O-])=O,-4.78
2-carboxy-7-methylsulfinylxanthone; 7-methylsulfinylxanthone-2-carboxylic acid; 7-methylsulfinyl-9-oxo-9h-xanthene-2-carboxylic acid,C[S](=O)C1=CC=C2OC3=C(C=C(C=C3)C(O)=O)C(=O)C2=C1,-5.02
rs-82917;  7-(4-methylthiobenzoyl)benzofuran-5-yl-acetic acid,CSC1=CC=C(C=C1)C(=O)C2=CC(=CC3=C2OC=C3)CC(O)=O,-5.51
chlorsulfuron,COC1=NC(=NC(=N1)NC(=O)N[S](=O)(=O)C2=CC=CC=C2Cl)C,-1.71
"2-sulfamoyl-5-phenylsulfonamido-1,3,4-thiadiazole",N[S](=O)(=O)C1=NN=C(N[S](=O)(=O)C2=CC=CC=C2)S1,-2.9
"4-(4-bromo-2-fluorophenylamino)-5-fluoro-1-methyl-6-oxo-1,6-dihydropyridine-3-carboxylic acid ethoxyamide",CCONC(=O)C1=CN(C)C(=O)C(=C1NC2=CC=C(Br)C=C2F)F,-4.19
"1,2,3,6,7,8-hexachlorodibenzofuran",ClC1=CC2=C(C(=C1Cl)Cl)C3=C(O2)C(=C(Cl)C(=C3)Cl)Cl,-10.3
"quercetin dihydrate; 3,5,7,3',4'-pentahydroxyflavone*2h2o; meletin; sophoretin",OC1=CC2=C(C(=C1)O)C(=O)C(=C(O2)C3=CC=C(O)C(=C3)O)O,-1.99
miconazole,ClC1=CC(=C(COC(C[N]2C=CN=C2)C3=CC=C(Cl)C=C3Cl)C=C1)Cl,-5.08
tmppt; tetramethylpyrimidopteridinetetrone,CN1C(=O)N(C)C2=C(N=C3C(=O)N(C)C(=O)N(C)C3=N2)C1=O,-3.31
"2-sulfamoyl-5-benzylsulfonylamido-1,3,4-thiadiazole; 5-benzylsulfonylamino-1,3,4-thiadiazole-2-sulfonamide",N[S](=O)(=O)C1=NN=C(N[S](=O)(=O)CC2=CC=CC=C2)S1,-2.7
methyl alpha-(4-nitrophenylsulfonyl)cinnamate; 2-methoxycarbonyl-2-(4-nitrophenylsulfonyl)styrene,COC(=O)\C(=C\C1=CC=CC=C1)[S](=O)(=O)C2=CC=C(C=C2)[N+]([O-])=O,-4.57
coumachlor  (hemiketal isomer),CC1(O)CC(C2=CC=C(Cl)C=C2)C3=C(O1)C4=C(OC3=O)C=CC=C4,-5.84
valdecoxib,CC1=C(C2=CC=C(C=C2)[S](N)(=O)=O)C(=NO1)C3=CC=CC=C3,-4.52
"4-(4-bromo-2-fluorophenylamino)-n-(2-hydroxyethoxy)-1,5-dimethyl-6-oxo-1,6-dihydropyridine-3-carboxamide",CN1C=C(C(=O)NOCCO)C(=C(C)C1=O)NC2=C(F)C=C(Br)C=C2,-2.96
2-sulfamoyl-6-(aminoacetamidoacetoxyethoxy)benzothiazole,NCC(=O)NCC(=O)OCCOC1=CC2=C(C=C1)N=C(S2)[S](N)(=O)=O,-1.3
"2-sulfamoyl-5-(4'-tolyl)sulfonamido-1,3,4-thiadiazole; 5-(4-methylbenzenesulfonylamino)-1,3,4-thiadiazole-2-sulfonamide",CC1=CC=C(C=C1)[S](=O)(=O)NC2=NN=C(S2)[S](N)(=O)=O,-1.22
bumetanide,CCCCNC1=C(OC2=CC=CC=C2)C(=CC(=C1)C(O)=O)[S](N)(=O)=O,-3.56
sparfloxacin,CC1CN(CC(C)N1)C2=C(F)C3=C(C(=C2F)N)C(=O)C(=CN3C4CC4)C(O)=O,-3.37
glafenine,OCC(O)COC(=O)C1=C(NC2=C3C=CC(=CC3=NC=C2)Cl)C=CC=C1,-4.54
"5-(4-aminobenzenesulfonamido)-1,3,4-thiadiazole-2-sulfonamide",NC1=CC=C(C=C1)[S](=O)(=O)NC2=NN=C(S2)[S](N)(=O)=O,-1.5
tamoxifen,CCC(/C1=CC=CC=C1)=C(\C2=CC=CC=C2)C3=CC=C(OCCN(C)C)C=C3,-8.49
"5-(3-aminobenzenesulfonamido)-1,3,4-thiadiazole-2-sulfonamide",NC1=CC=CC(=C1)[S](=O)(=O)NC2=NN=C(S2)[S](N)(=O)=O,-1.54
midazolam,CC1=NC=C2CN=C(C3=C(F)C=CC=C3)C4=C(C=CC(=C4)Cl)[N]12,-4.13
prosulfalin,CCCN(CCC)C1=C(C=C(C=C1[N+]([O-])=O)[S](=O)(=O)N=[S](C)C)[N+]([O-])=O,-4.86
"2-Amino-2-(4-aminophenyl)-N-[(2R,5S,6S)-3,3-dimethyl-7-oxo-2-(2H-tetrazol-5-yl)-4-thia-1-azabicyclo[3.2.0]hept-6-yl]acetamide",CC1(C)SC2C(NC(=O)C(N)C3=CC=C(N)C=C3)C(=O)N2C1C4=NN=N[NH]4,-1.57
"2-sulfamoyl-5-pentafluorobenzoylamido-1,3,4-thiadiazole",N[S](=O)(=O)C1=NN=C(NC(=O)C2=C(F)C(=C(F)C(=C2F)F)F)S1,-1.37
acyclovir ester vi;  acyclovir 3-(dipropylaminomethyl)benzoate,CCCN(CCC)CC1=CC=CC(=C1)C(=O)OCCOC[N]2C=NC3=C2N=C(N)NC3=O,-0.35
"2-sulfamoyl-5-(4-chlorobenzenesulfonamido)-1,3,4-thiadiazole",N[S](=O)(=O)C1=NN=C(N[S](=O)(=O)C2=CC=C(Cl)C=C2)S1,-2.01
n1-(4-sulfamoylbenzyl)-n3-[(1-carboxy-2-hydroxy-2-phenyl)ethyl]thiourea; 2-(4-sulfamoylbenzyl)thioureido-3-hydroxy-3-phenylpropanoic acid,N[S](=O)(=O)C1=CC=C(CNC(=S)NC(C(O)C2=CC=CC=C2)C(O)=O)C=C1,-1.29
"2-sulfamoyl-4-methyl-5-benzylsulfonylimido-1,3,4-thiadiazoline; 5-benzylsulfonylimido-4-methyl-delta2-1,3,4-thiadiazoline-2-sulfonamide",CN1N=C(SC1=N[S](=O)(=O)CC2=CC=CC=C2)[S](N)(=O)=O,-2.48
"2-sulfamoyl-5-(4'-anisyl)sulfonylamido-1,3,4-thiadiazole; 5-(4-methoxybenzenesulfonylamino)-1,3,4-thiadiazole-2-sulfonamide",COC1=CC=C(C=C1)[S](=O)(=O)NC2=NN=C(S2)[S](N)(=O)=O,-2.25
prazosin,COC1=CC2=C(C=C1OC)C(=NC(=N2)N3CCN(CC3)C(=O)C4=CC=CO4)N,-5.09
"2-sulfamoyl-4-methyl-5-(4-tolylsulfonylimido)-1,3,4-thiadiazoline; 5-(4-methylbenzenesulfonylimido)-4-methyl-delta2-1,3,4-thiadiazoline-2-sulfonamide",CN1N=C(SC1=N[S](=O)(=O)C2=CC=C(C)C=C2)[S](N)(=O)=O,-2.84
naproxen-derivat 3 d,COC1=CC=C2C=C(C=CC2=C1)C(C)C(=O)OCCOC(=O)C(N)CC3=CC=CC=C3,-3.75
alpha-cyclodextrin;  alfadex,OCC1OC2OC3C(O)C(O)C(OC3CO)OC4C(O)C(O)C(OC4CO)OC5C(O)C(O)C(OC5CO)OC6C(O)C(O)C(OC6CO)OC7C(O)C(O)C(OC7CO)OC1C(O)C2O,-0.91
n1-(1-benzyl-2-oxopyrimidin-4-yl)sulfanilamide;  1-benzyl-4-sulfapyrimidin-2-one,NC1=CC=C(C=C1)[S](=O)(=O)NC2=NC(=O)N(CC3=CC=CC=C3)C=C2,-4.8
"5-(4-fluorobenzenesulfonylimido)-4-methyl-2-sulfonamido-delta2-1,3,4-thiadiazoline",CN1N=C(SC1=N[S](=O)(=O)C2=CC=C(F)C=C2)[S](N)(=O)=O,-2.03
n-[(2-methylamino)acetyl]dorzolamide,CCN(C1CC(C)[S](=O)(=O)C2=C1C=C(S2)[S](N)(=O)=O)C(=O)CNC,-1.21
"5-(4-aminobenzenesulfonylimido)-4-methyl-delta2-1,3,4-thiadiazoline-2-sulfonamide",CN1N=C(SC1=N[S](=O)(=O)C2=CC=C(N)C=C2)[S](N)(=O)=O,-2.5
norethindrone  biphenyl-4-carboxylate,CC12CCC3C(CCC4=CC(=O)CCC34)C1CCC2(OC(=O)C5=CC=C(C=C5)C6=CC=CC=C6)C#C,-8.11
"5-(3-aminobenzenesulfonylimido)-4-methyl-delta2-1,3,4-thiadiazoline-2-sulfonamide",CN1N=C(SC1=N[S](=O)(=O)C2=CC=CC(=C2)N)[S](N)(=O)=O,-2.45
"5-(2,4,6-trimethylbenzenesulfonamido)-1,3,4-thiadiazole-2-sulfonamide",CC1=CC(=C(C(=C1)C)[S](=O)(=O)NC2=NN=C(S2)[S](N)(=O)=O)C,-2.7
indapamide;  1-(3-aminosulfonyl-4-chloro)benzoylamino-2-methylindoline,CC1CC2=C(C=CC=C2)N1NC(=O)C3=CC(=C(Cl)C=C3)[S](N)(=O)=O,-3.79
aztreonam,CC1C(NC(=O)C(=N\OC(C)(C)C(O)=O)/C2=CSC(=N2)N)C(=O)N1[S](O)(=O)=O,-1.64
naproxen-derivat 3 i,COC1=CC=C2C=C(C=CC2=C1)C(C)C(=O)OC(C)OC(=O)C(N)CC3=CC=CC=C3,-3.5
"2-sulfamoyl-5-(4-bromobenzenesulfonamido)-1,3,4-thiadiazole",N[S](=O)(=O)C1=NN=C(N[S](=O)(=O)C2=CC=C(Br)C=C2)S1,-2.13
"5-(4-chlorobenzenesulfonylimido)-4-methyl-2-sulfonamido-delta2-1,3,4-thiadiazoline",CN1N=C(SC1=N[S](=O)(=O)C2=CC=C(Cl)C=C2)[S](N)(=O)=O,-2.44
2-chloro-4-[(4-'acetylpiperazin-1'-yl)acryloyl]phenyl   benzodioxan-6''-yl  sulfide,CC(=O)N1CCN(CC1)C(=O)/C=C/C2=CC(=C(SC3=CC4=C(OCCO4)C=C3)C=C2)Cl,-2.05
"4-(6,7-dimethoxyquinazolin-4-yl)piperazine-1-carbothioic acid (furan-2-ylmethyl)amide",COC1=CC2=C(C=C1OC)C(=NC=N2)N3CCN(CC3)C(=S)NCC4=CC=CO4,-5.63
"4-(6,7-dimethoxyquinazolin-4-yl)piperazine-1-carboxylic acid thiophen-3-ylamide",COC1=CC2=C(C=C1OC)C(=NC=N2)N3CCN(CC3)C(=O)NC4=CSC=C4,-5.3
n4-[2-(nicotinoylamino)pyrimidin-4-yl]sulfanilamide;  2-(nicotinoylamino)-4-(4-sulfamoylphenylamino)pyrimidine,N[S](=O)(=O)C1=CC=C(NC2=NC(=NC=C2)NC(=O)C3=CC=CN=C3)C=C1,-1.27
"amidotrizoic  acid;  diatrizoic acid;  3,5-diacetamido-2,4,6-triiodobenzoic acid",CC(=O)NC1=C(I)C(=C(I)C(=C1I)C(O)=O)NC(C)=O,-2.01
norethindrone  4-phenoxybenzoate,CC12CCC3C(CCC4=CC(=O)CCC34)C1CCC2(OC(=O)C5=CC=C(OC6=CC=CC=C6)C=C5)C#C,-6.84
"2-sulfamoyl-4-methyl-5-(4-anisylsulfonylimido)-1,3,4-thiadiazoline; 5-(4-methoxybenzenesulfonylimido)-4-methyl-delta2-1,3,4-thiadiazoline-2-sulfonamide",COC1=CC=C(C=C1)[S](=O)(=O)N=C2SC(=NN2C)[S](N)(=O)=O,-2.76
"2-sulfamoyl-5-(4-nitrobenzenesulfonamido)-1,3,4-thiadiazole",N[S](=O)(=O)C1=NN=C(N[S](=O)(=O)C2=CC=C(C=C2)[N+]([O-])=O)S1,-1.33
"2,3-dichloro-4,6-disulfamoyl-1-glycylglycylamidobenzene",NCC(=O)NCC(=O)NC1=C(Cl)C(=C(C=C1[S](N)(=O)=O)[S](N)(=O)=O)Cl,-1.23
minocycline,CN(C)C1C2CC3CC4=C(C=CC(=C4C(=O)C3=C(O)C2(O)C(=O)C(=C1O)C(N)=O)O)N(C)C,-0.94
"2-sulfamoyl-5-(3-nitrobenzenesulfonamido)-1,3,4-thiadiazole",N[S](=O)(=O)C1=NN=C(N[S](=O)(=O)C2=CC(=CC=C2)[N+]([O-])=O)S1,-1.46
2-isopropylphenyl  2'-nitro-4'-[(4''-acetylpiperazin-1''-yl)acryloyl]phenyl  sulfide,CC(C)C1=C(SC2=C(C=C(\C=C\C(=O)N3CCN(CC3)C(C)=O)C=C2)[N+]([O-])=O)C=CC=C1,-2.7
"5-(2-carboxybenzenesulfonamido)-1,3,4-thiadiazole-2-sulfonamide",N[S](=O)(=O)C1=NN=C(N[S](=O)(=O)C2=C(C=CC=C2)C(O)=O)S1,-2.32
"5-(4-acetylaminobenzenesulfonamido)-1,3,4-thiadiazole-2-sulfonamide",CC(=O)NC1=CC=C(C=C1)[S](=O)(=O)NC2=NN=C(S2)[S](N)(=O)=O,-1.62
"2-sulfamoyl-5-(2-nitrobenzenesulfonamido)-1,3,4-thiadiazole",N[S](=O)(=O)C1=NN=C(N[S](=O)(=O)C2=C(C=CC=C2)[N+]([O-])=O)S1,-1.82
2-chloro-4-[(4'-acetylpiperazin-1'-yl)carbonyl)ethenyl]phenyl  indol-5''-yl  sulfide,CC(=O)N1CCN(CC1)C(=O)/C=C/C2=CC(=C(SC3=CC4=C([NH]C=C4)C=C3)C=C2)Cl,-2.74
"2-sulfamoyl-5-(2,4,6-trimethylbenzenesulfonylimido)-4-methyl-1,3,4-thiadiazoline",CN1N=C(SC1=N[S](=O)(=O)C2=C(C)C=C(C)C=C2C)[S](N)(=O)=O,-3.0
nicosulfuron,COC1=NC(=NC(=C1)OC)NC(=O)N[S](=O)(=O)C2=NC=CC=C2C(=O)N(C)C,-3.97
"2-sulfamoyl-5-(4-iodobenzenesulfonamido)-1,3,4-thiadiazole",N[S](=O)(=O)C1=NN=C(N[S](=O)(=O)C2=CC=C(I)C=C2)S1,-2.2
diltiazem,COC1=CC=C(C=C1)C2SC3=CC=CC=C3N(CCN(C)C)C(=O)C2OC(C)=O,-2.95
"5-(4-bromobenzenesulfonylimido)-4-methyl-2-sulfonamido-delta2-1,3,4-thiadiazoline",CN1N=C(SC1=N[S](=O)(=O)C2=CC=C(Br)C=C2)[S](N)(=O)=O,-2.51
"dpx-m6316;  methyl  3-(4',6'-dimethoxy-1',3',5'-triazin-2'-yl)ureidosulfonylthiophene-2-carboxylate",COC(=O)C1=C(C=CS1)[S](=O)(=O)NC(=O)NC2=NC(=NC(=N2)OC)OC,-3.19
flavopiridol,CN1CCC(C(O)C1)C2=C(O)C=C(O)C3=C2OC(=CC3=O)C4=C(Cl)C=CC=C4,-4.26
flutrimazole,FC1=CC=C(C=C1)C([N]2C=CN=C2)(C3=CC=CC=C3)C4=C(F)C=CC=C4,-8.4
tenoxicam,CN1C(=C(O)C2=C(C=CS2)[S]1(=O)=O)C(=O)NC3=NC=CC=C3,-3.88
"n1-(2-sulfamoyl-1,3,4-thiadiazol-5-yl)-n4-(glycyl)sulfanilamide",NCC(=O)NC1=CC=C(C=C1)[S](=O)(=O)NC2=NN=C(S2)[S](N)(=O)=O,-1.19
"4-methyl-5-(4-nitrobenzenesulfonylimido)-delta2-1,3,4-thiadiazoline-2-sulfonamide",CN1N=C(SC1=N[S](=O)(=O)C2=CC=C(C=C2)[N+]([O-])=O)[S](N)(=O)=O,-2.7
"4-methyl-5-(3-nitrobenzenesulfonylimido)-delta2-1,3,4-thiadiazoline-2-sulfonamide",CN1N=C(SC1=N[S](=O)(=O)C2=CC=CC(=C2)[N+]([O-])=O)[S](N)(=O)=O,-2.67
difloxacin,CN1CCN(CC1)C2=CC3=C(C=C2F)C(=O)C(=CN3C4=CC=C(F)C=C4)C(O)=O,-3.82
brinzolamide,CCNC1CN(CCCOC)[S](=O)(=O)C2=C1C=C(S2)[S](N)(=O)=O,-2.95
"2-sulfamoyl-4-methyl-5-(4-acetamidobenzenesulfonylimido)-1,3,4-thiadiazoline; 5-(4-acetylaminobenzenesulfonylimido)-4-methyl-delta2-1,3,4-thiadiazoline-2-sulfonamide",CN1N=C(SC1=N[S](=O)(=O)C2=CC=C(NC(C)=O)C=C2)[S](N)(=O)=O,-1.69
"5-(2-carboxybenzenesulfonylimido)-4-methyl-delta2-1,3,4-thiadiazoline-2-sulfonamide",CN1N=C(SC1=N[S](=O)(=O)C2=C(C=CC=C2)C(O)=O)[S](N)(=O)=O,-2.51
sulfasalazine,OC(=O)C1=C(O)C=CC(=C1)N=NC2=CC=C(C=C2)[S](=O)(=O)NC3=CC=CC=N3,-6.14
valsartan,CCCCC(=O)N(CC1=CC=C(C=C1)C2=C(C=CC=C2)C3=NN=N[NH]3)C(C(C)C)C(O)=O,-4.2
"4-methyl-5-(2-nitrobenzenesulfonylimido)-delta2-1,3,4-thiadiazoline-2-sulfonamide",CN1N=C(SC1=N[S](=O)(=O)C2=CC=CC=C2[N+]([O-])=O)[S](N)(=O)=O,-2.79
"2-sulfamoyl-5-(4-chloro-3-nitrobenzenesulfonamido)-1,3,4-thiadiazole",N[S](=O)(=O)C1=NN=C(N[S](=O)(=O)C2=CC(=C(Cl)C=C2)[N+]([O-])=O)S1,-1.99
"kn 1022; 4-(6',7'-dimethoxyquinazolin-4'-yl)-1-(4''-nitrophenylcarboxamido)piperazine",COC1=CC2=C(C=C1OC)C(=NC=N2)N3CCN(CC3)C(=O)NC4=CC=C(C=C4)[N+]([O-])=O,-6.95
fluorescein (red),OC(=O)C1=CC=CC=C1C2=C3C=CC(=O)C=C3OC4=C2C=CC(=C4)O,-3.82
avitriptan;  bms-180048,COC1=C(N=CN=C1)N2CCN(CC2)CCC3=C[NH]C4=C3C=C(C[S](=O)(=O)N(C)C)C=C4,-3.76
"5-(4-iodobenzenesulfonylimido)-4-methyl-2-sulfonamido-delta2-1,3,4-thiadiazoline",CN1N=C(SC1=N[S](=O)(=O)C2=CC=C(I)C=C2)[S](N)(=O)=O,-2.77
cefazolin,CC1=NN=C(SCC2=C(N3C(SC2)C(NC(=O)C[N]4C=NN=N4)C3=O)C(O)=O)S1,-2.62
phenyl-kni-727,CC(C)(C)NC(=O)C1N(CSC1(C)C)C(=O)C(O)C(CC2=CC=CC=C2)NC(=O)C3=CC=CC=C3,-3.62
"acetazolamide  analog c 13; 5-pentafluorobenzenesulfonylamino-1,3,4-thiadiazole-2-sulfonamide",N[S](=O)(=O)C1=NN=C(N[S](=O)(=O)C2=C(F)C(=C(F)C(=C2F)F)F)S1,-1.21
cefamandole,C[N]1N=NN=C1SCC2=C(N3C(SC2)C(NC(=O)C(O)C4=CC=CC=C4)C3=O)C(O)=O,-0.14
brequinar,CC1=C(C(O)=O)C2=CC(=CC=C2N=C1C3=CC=C(C=C3)C4=C(F)C=CC=C4)F,-6.39
flubenzimine,FC(F)(F)N=C1SC(=NC2=CC=CC=C2)N(C3=CC=CC=C3)C1=NC(F)(F)F,-5.42
benzyl-kni-727,CC(C)(C)NC(=O)C1N(CSC1(C)C)C(=O)C(O)C(CC2=CC=CC=C2)NC(=O)CC3=CC=CC=C3,-3.72
temafloxacin,CC1CN(CCN1)C2=CC3=C(C=C2F)C(=O)C(=CN3C4=C(F)C=C(F)C=C4)C(O)=O,-3.8
4-tolyl-kni-727,CC1=CC=C(C=C1)C(=O)NC(CC2=CC=CC=C2)C(O)C(=O)N3CSC(C)(C)C3C(=O)NC(C)(C)C,-4.11
folic  acid,NC1=NC(=O)C2=C(N1)N=CC(=N2)CNC3=CC=C(C=C3)C(=O)NC(CCC(O)=O)C(O)=O,-5.44
trovafloxacin,NC1C2CN(CC12)C3=NC4=C(C=C3F)C(=O)C(=CN4C5=CC=C(F)C=C5F)C(O)=O,-4.53
"5-(4-chloro-3-nitrobenzenesulfonyl-imido)-4-methyl-2-sulfonamido-delta2-1,3,4-thiadiazoline",CN1N=C(SC1=N[S](=O)(=O)C2=CC(=C(Cl)C=C2)[N+]([O-])=O)[S](N)(=O)=O,-2.47
n4-[(2-phenylsulfonylamino)pyrimidin-4-yl]sulfanilamide; 2-(phenylsulfonylamino)-4-(4-sulfamoylphenylamino)pyrimidine,N[S](=O)(=O)C1=CC=C(NC2=NC(=NC=C2)N[S](=O)(=O)C3=CC=CC=C3)C=C1,-2.55
beta-cyclodextrin;  betadex,OCC1OC2OC3C(O)C(O)C(OC3CO)OC4C(O)C(O)C(OC4CO)OC5C(O)C(O)C(OC5CO)OC6C(O)C(O)C(OC6CO)OC7C(O)C(O)C(OC7CO)OC8C(O)C(O)C(OC8CO)OC1C(O)C2O,-1.84
"2,6-demethyl-kni-727",CC(C)(C)NC(=O)C1N(CSC1(C)C)C(=O)C(O)C(CC2=CC=CC=C2)NC(=O)COC3=CC=CC=C3,-3.83
n4-[2-(benzylsulfonamido)pyrimidin-4-yl)sulfanilamide; 4-[2-(benzylsulfonylamino)pyrimidin-4-ylamino]benzenesulfonamide,N[S](=O)(=O)C1=CC=C(NC2=CC=NC(=N2)N[S](=O)(=O)CC3=CC=CC=C3)C=C1,-2.7
4-chlorophenyl-kni-727,CC(C)(C)NC(=O)C1N(CSC1(C)C)C(=O)C(O)C(CC2=CC=CC=C2)NC(=O)C3=CC=C(Cl)C=C3,-4.28
"2-sulfamoyl-5-(2,4-dinitrobenzenesulfonamido)-1,3,4-thiadiazole",N[S](=O)(=O)C1=NN=C(N[S](=O)(=O)C2=C(C=C(C=C2)[N+]([O-])=O)[N+]([O-])=O)S1,-2.91
4-methoxyphenylkni-727,COC1=CC=C(C=C1)C(=O)NC(CC2=CC=CC=C2)C(O)C(=O)N3CSC(C)(C)C3C(=O)NC(C)(C)C,-4.11
"2-(n4-glycylglycylsulfanilamido)-1,3,4-thiadiazole-5-sulfonamide",NCC(=O)NCC(=O)NC1=CC=C(C=C1)[S](=O)(=O)NC2=NN=C(S2)[S](N)(=O)=O,-1.29
triflusulfuron-methyl,COC(=O)C1=C(C(=CC=C1)C)[S](=O)(=O)NC(=O)NC2=NC(=NC(=N2)OCC(F)(F)F)N(C)C,-5.69
kni-727,CC1=C(OCC(=O)NC(CC2=CC=CC=C2)C(O)C(=O)N3CSC(C)(C)C3C(=O)NC(C)(C)C)C(=CC=C1)C,-5.01
"5-(2,4-dinitrobenzenesulfonylimido)-4-methyl-2-sulfonamido-delta2-1,3,4-thiadiazoline",CN1N=C(SC1=N[S](=O)(=O)C2=C(C=C(C=C2)[N+]([O-])=O)[N+]([O-])=O)[S](N)(=O)=O,-2.74
4-nitrophenyl-kni-727,CC(C)(C)NC(=O)C1N(CSC1(C)C)C(=O)C(O)C(CC2=CC=CC=C2)NC(=O)C3=CC=C(C=C3)[N+]([O-])=O,-3.98
2-sulfanilamido-4-(diphenyl-4-yl)thiazole,NC1=CC=C(C=C1)[S](=O)(=O)NC2=NC(=CS2)C3=CC=C(C=C3)C4=CC=CC=C4,-5.61
2-(4-bromophenylsulfonylamino)-4-(4-sulfamoylphenylamino)pyrimidine; n4-[2-(4-bromophenylsulfonylamino)pyrimidin-4-yl]sulfanilamide,N[S](=O)(=O)C1=CC=C(NC2=NC(=NC=C2)N[S](=O)(=O)C3=CC=C(Br)C=C3)C=C1,-2.62
4-[2-(4-tosylureido)pyrimidin-4-yl-amino]benzenesulfonamide,CC1=CC=C(C=C1)[S](=O)(=O)NC(=O)NC2=NC(=CC=N2)NC3=CC=C(C=C3)[S](N)(=O)=O,-4.3
chlorfluazuron;  atabron,FC1=CC=CC(=C1C(=O)NC(=O)NC2=CC(=C(OC3=C(Cl)C=C(C=N3)C(F)(F)F)C(=C2)Cl)Cl)F,-8.65
n-phosphorylated cimicoxib;  n-[4-(4-chloro-5-(3-fluoro-4-methoxyphenyl)imidazol-1-yl)phenylsulfonyl]phosphoramidic acid,COC1=C(F)C=C(C=C1)C2=C(Cl)N=C[N]2C3=CC=C(C=C3)[S](=O)(=O)N[P](O)(O)=O,-2.55
4-[2-(3-trifluoromethylphenylsulfonylamino)pyrimidin-4-ylamino]benzenesulfonamide,N[S](=O)(=O)C1=CC=C(NC2=CC=NC(=N2)N[S](=O)(=O)C3=CC(=CC=C3)C(F)(F)F)C=C1,-1.82
4-[2-(4-chlorphenylsulfonylureido)pyrimidin-4-ylamino]benzenesulfonamide,N[S](=O)(=O)C1=CC=C(NC2=CC=NC(=N2)NC(=O)N[S](=O)(=O)C3=CC=C(Cl)C=C3)C=C1,-4.0
gamma-cyclodextrin,OCC1OC2OC3C(O)C(O)C(OC3CO)OC4C(O)C(O)C(OC4CO)OC5C(O)C(O)C(OC5CO)OC6C(O)C(O)C(OC6CO)OC7C(O)C(O)C(OC7CO)OC8C(O)C(O)C(OC8CO)OC9C(O)C(O)C(OC9CO)OC1C(O)C2O,-0.75
lasinavir,COCCNC(=O)C(NC(=O)C(CC(O)C(CC1=CC=CC=C1)NC(=O)OC(C)(C)C)CC2=CC(=C(OC)C(=C2)OC)OC)C(C)C,-4.0
2-pentafluorophenylsulfonylamino-4-(4-sulfamoylphenylamino)pyrimidine;  n4-[2-(pentafluorophenylsulfonylamino)pyrimidin-4-yl]sulfanilamide,N[S](=O)(=O)C1=CC=C(NC2=NC(=NC=C2)N[S](=O)(=O)C3=C(F)C(=C(F)C(=C3F)F)F)C=C1,-1.57
sb 209670,CCCOC1=CC=C2C(C(C(C3=CC=C(OC)C=C3OCC(O)=O)C2=C1)C(O)=O)C4=CC5=C(OCO5)C=C4,-6.77
dihydroergocristine,CC(C)C1(NC(=O)C2CC3C(CC4=C[NH]C5=C4C3=CC=C5)N(C)C2)OC6(O)C7CCCN7C(=O)C(CC8=CC=CC=C8)N6C1=O,-5.27
reserpine,COC1C(CC2CN3CCC4=C([NH]C5=C4C=CC(=C5)OC)C3CC2C1C(=O)OC)OC(=O)C6=CC(=C(OC)C(=C6)OC)OC,-5.97
bromadiolone,OC(CC(C1=CC=CC=C1)C2=C(O)C3=C(OC2=O)C=CC=C3)C4=CC=C(C=C4)C5=CC=C(Br)C=C5,-4.45
cosalane;  nsc 658586,CC(C)CCCC(C)C1CCC2C3CCC4CC(C)(CCC=C(C5=CC(=C(O)C(=C5)C(O)=O)Cl)C6=CC(=C(O)C(=C6)C(O)=O)Cl)CCC4(C)C3CCC12C,-8.46
boc-phe-is-sta-leu-nh(ch2)3n(ch2ch2oh)2 (analog 22),CC(C)CC(NC(=O)C(CC1=C[NH]C=N1)NC(=O)C(CC2=CC=CC=C2)NC(=O)OC(C)(C)C)C(O)CC(=O)NC(CC(C)C)C(=O)NCCCN(CCO)CCO,-2.37
"boc-phe-his-sta-leu-nh-ch2ch2-ch(nh2)-cooh, analog 16)",CC(C)CC(NC(=O)C(CC1=C[NH]C=N1)NC(=O)C(CC2=CC=CC=C2)NC(=O)OC(C)(C)C)C(O)CC(=O)NC(CC(C)C)C(=O)NCCC(N)C(O)=O,-2.22
kni-272;  kynostatin,CSCC(NC(=O)COC1=CC=CC2=C1C=CN=C2)C(=O)NC(CC3=CC=CC=C3)C(O)C(=O)N4CSCC4C(=O)NC(C)(C)C,-3.95
bromothymol  blue,CC(C)C1=C(Br)C(=C(C)C=C1C2(O[S](=O)(=O)C3=C2C=CC=C3)C4=CC(=C(O)C(=C4C(C)C)Br)C)O,-5.18
boc-phe-his-sta-leu-nhch2-4-pyridyl (analog 5),CC(C)CC(NC(=O)C(CC1=C[NH]C=N1)NC(=O)C(CC2=CC=CC=C2)NC(=O)OC(C)(C)C)C(O)CC(=O)NC(CC(C)C)C(=O)NCC3=CC=NC=C3,-3.36
boc-phe-his-sta-leu-nh2-2-pyridyl (analog 4),CC(C)CC(NC(=O)C(CC1=C[NH]C=N1)NC(=O)C(CC2=CC=CC=C2)NC(=O)OC(C)(C)C)C(O)CC(=O)NC(CC(C)C)C(=O)NCC3=CC=CC=N3,-3.42
boc-phe-his-sta-leu-nh-ch2-4-pyridyl-n-oxide;  (analog 7),CC(C)CC(NC(=O)C(CC1=C[NH]C=N1)NC(=O)C(CC2=CC=CC=C2)NC(=O)OC(C)(C)C)C(O)CC(=O)NC(CC(C)C)C(=O)NCC3=CC=[N+]([O-])C=C3,-2.38
"boc-phe-his-sta-leu-nhch2-ph--3-ch2nh2, analog 11",CC(C)CC(NC(=O)C(CC1=C[NH]C=N1)NC(=O)C(CC2=CC=CC=C2)NC(=O)OC(C)(C)C)C(O)CC(=O)NC(CC(C)C)C(=O)NCC3=CC=CC(=C3)CN,-2.85
boc-phe-his-sta-leu-nh-ch2-ch(nh2)-2-pyridyl;  (analog 8),CC(C)CC(NC(=O)C(CC1=C[NH]C=N1)NC(=O)C(CC2=CC=CC=C2)NC(=O)OC(C)(C)C)C(O)CC(=O)NC(CC(C)C)C(=O)NCC(N)C3=CC=CC=N3,-3.4
iodipamide;  adipiodone,OC(=O)C1=C(I)C(=C(I)C=C1I)NC(=O)CCCCC(=O)NC2=C(I)C=C(I)C(=C2I)C(O)=O,-3.39
boc-phe-his-achpa-leu-nh-ch2-ph-3-ch2-nh2 (analog 12),CC(C)CC(NC(=O)CC(O)C(CC1CCCCC1)NC(=O)C(CC2=C[NH]C=N2)NC(=O)C(CC3=CC=CC=C3)NC(=O)OC(C)(C)C)C(=O)NCC4=CC=CC(=C4)CN,-4.7
"boc-phe-his-sta-leu-nh-chph-cooh, analog 18",CC(C)CC(NC(=O)C(CC1=C[NH]C=N1)NC(=O)C(CC2=CC=CC=C2)NC(=O)OC(C)(C)C)C(O)CC(=O)NC(CC(C)C)C(=O)NC(C(O)=O)C3=CC=CC=C3,-3.13
"l-365,209, analog 2;  (cyclic hexapeptide)",CCC(C)C1NC(=O)C(CC2=CC=CC=C2)NC(=O)C3CCCN3C(=O)C(CC4=CC=CC=C4)N(C)C(=O)C5CCCCN5C(=O)C6CCCCN6C1=O,-5.57
"boc-phe-his-sta-leu-nhch(cooh)ch2-c6h4-3-nh2,  tetrapeptide derivative (15)",CC(C)CC(NC(=O)C(CC1=C[NH]C=N1)NC(=O)C(CC2=CC=CC=C2)NC(=O)OC(C)(C)C)C(O)CC(=O)NC(CC(C)C)C(=O)NC(CC3=CC(=CC=C3)CN)C(O)=O,-2.82
"l-365,209, analog 10;  (cyclic hexapeptide)",CCC(C)C1NC(=O)C(CC2=C[NH]C3=C2C=CC=C3)NC(=O)C4CCCN4C(=O)C(CC5=C[NH]C=N5)NC(=O)C6CCCCN6C(=O)C7CCCCN7C1=O,-2.58