Name,SMILES,Solubility
"azuleno[6,5-b]furan-2,6-(3h,4h)-dione, 3a,7,7a,8",C[C@H]1C[C@H]2OC(=O)[C@@H](C)[C@H]2[C@H](O)C3=C(C)C(=O)C[C@H]13,-1.945
iodamide,CC(=O)NCc1c(I)c(NC(C)=O)c(I)c(C(O)=O)c1I,-2.3208
dl-isoleucine,CC[C@H](C)[C@@H](N)C(O)=O,-0.7875
"benzeneacetic acid, 2,5-dihydroxy-",OC(=O)Cc1cc(O)ccc1O,0.7037
1h-purin-2-amine,Nc1ncc2[nH]cnc2n1,-1.21
"3-furanol, tetrahydro-",OC1CCOC1,1.055
"benzoic acid, 4-fluoro-3-nitro-",OC(=O)c1ccc(F)c(c1)[N+]([O-])=O,-1.5809
m-fluorobenzyl chloride,Fc1cccc(CCl)c1,-2.5436
2-propylpiperidine,CCC[C@H]1CCCCN1,-0.8493
"ethane, 1,1-difluoro-2-methoxy-",COCC(F)F,-0.2836
2-cyanoguanidine,NC(N)=NC#N,-0.3087
3-aminopyridine,Nc1cccnc1,1.0263
n-(aminocarbonyl)glycine,NC(=O)NCC(O)=O,-0.5809
".beta.-alanine, n-(aminocarbonyl)-",NC(=O)NCCC(O)=O,-0.8014
d-borneol,CC1(C)C2CCC1(C)[C@@H](O)C2,-2.319
"(1r,4r)-(+)-camphor",CC1(C)[C@H]2CC[C@@]1(C)C(=O)C2,-3.1825
quinamine,O[C@@]12CCO[C@@]1(Nc3ccccc23)[C@@H]4C[C@@H]5CCN4C[C@@H]5C=C,-2.6706
aspidospermine,CC[C@@]12CCCN3CC[C@@]4([C@@H](CC1)N(C(C)=O)c5c(OC)cccc45)[C@@H]23,-1.3269
flurenol,OC(=O)[C@@]1(O)c2ccccc2c3ccccc13,-1.9657
propoxyphene,CCC(=O)O[C@@](Cc1ccccc1)([C@H](C)CN(C)C)c2ccccc2,-5.0097
"1,1'-sulfonylbis(2-chloroethane)",ClCC[S](=O)(=O)CCCl,-1.5031
methylguanidine,CN=C(N)N,-1.6135
thiazolsulfone,Nc1ccc(cc1)[S](=O)(=O)c2sc(N)nc2,-2.805
"cyclobutaneacetic acid, 3-acetyl-2,2-dimethyl-",CC(=O)C1CC(CC(O)=O)C1(C)C,-0.5752
chenodeoxycholic acid,C[C@H](CCC(O)=O)[C@H]1CC[C@H]2[C@@H]3[C@H](O)C[C@@H]4C[C@H](O)CC[C@]4(C)[C@H]3CC[C@]12C,-3.6402
equilin,C[C@]12CC[C@H]3C(=CCc4cc(O)ccc34)[C@@H]1CCC2=O,-5.2795
hematein,Oc1ccc2c(OCC3(O)CC4=CC(=O)C(=CC4=C23)O)c1O,-2.6994
glycocholic acid,C[C@H](CCC(=O)NCC(O)=O)[C@H]1CC[C@H]2[C@@H]3[C@H](O)C[C@@H]4C[C@H](O)CC[C@]4(C)[C@H]3C[C@H](O)[C@]12C,-5.1495
picropodophyllin,COc1cc(cc(OC)c1OC)[C@H]2[C@H]3[C@H](COC3=O)[C@@H](O)c4cc5OCOc5cc24,-3.6174
safranine t,[Cl-].Cc1cc2nc3c(C)c(N)ccc3[n+](c4ccccc4)c2cc1N,-0.8462
cholanthrene,C1Cc2c3ccc4ccccc4c3cc5cccc1c25,-7.8613
tetryl,CN(c1c(cc(cc1[N+]([O-])=O)[N+]([O-])=O)[N+]([O-])=O)[N+]([O-])=O,-3.5889
aucubin,OC[C@H]1O[C@@H](O[C@@H]2OC=C[C@H]3[C@H](O)C=C(CO)[C@@H]23)[C@H](O)[C@@H](O)[C@@H]1O,0.0119
"2,4,6-trimethylbenzoic acid",Cc1cc(C)c(c(C)c1)C(O)=O,-2.3566
"benzoic acid, 2,6-dihydroxy-4-methyl-",Cc1cc(O)c(C(O)=O)c(O)c1,-2.0496
"2,4,6(1h,3h,5h)-pyrimidinetrione, 5-nitro-",[O-][N+](=O)C1C(=O)NC(=O)NC1=O,-2.2840000000000003
santonin,C[C@H]1[C@@H]2CC[C@@]3(C)C=CC(=O)C(=C3[C@H]2OC1=O)C,-3.0905
epiandrosterone,C[C@]12CC[C@H](O)C[C@@H]1CC[C@@H]3[C@@H]2CC[C@@]4(C)[C@H]3CCC4=O,-4.1577
ecgonine,CN1C2CCC1[C@H]([C@@H](O)C2)C(O)=O,-0.0173
fervenulin,CN1C(=O)N(C)c2nncnc2C1=O,-1.9849
osthole,COc1ccc2C=CC(=O)Oc2c1CC=C(C)C,-4.3087
binapacryl,CCC(C)c1cc(cc(c1OC(=O)C=C(C)C)[N+]([O-])=O)[N+]([O-])=O,-5.5083
iridomyrmecin,CC1CCC2C(C)C(=O)OCC12,-1.9249
"pyrrolo[2,1-b]quinazolin-9(1h)-one,2,3-dihydro-3",O[C@H]1CCN2C(=O)c3ccccc3N=C12,-2.106
caulophylline,CN1C[C@@H]2C[C@@H](C1)C3=CC=CC(=O)N3C2,0.6484
lumazine,O=C1NC(=O)c2nccnc2N1,-2.1183
"1h-pyrrole-3-propanoic acid, 2,5-dihydro-4-methy",CC1=C(CCC(O)=O)C(=O)NC1=O,-0.6608
d-quercitol,O[C@@H]1C[C@@H](O)[C@H](O)C(O)[C@H]1O,-0.1739
"azulene, 1,4-dimethyl-7-(1-methylethyl)-",CC(C)c1ccc(C)c2ccc(C)c2c1,-5.4752
monotropitoside,COC(=O)c1ccccc1OC2OC(COC3OCC(O)C(O)C3O)C(O)C(O)C2O,-0.7418
1(2h)-isoquinolinone,O=C1NC=Cc2ccccc12,-2.4842
chrysarobin,Cc1cc(O)c2c(O)c3c(O)cccc3cc2c1,-3.0585
leucopterin,NC1=NC(=O)C2=C(N1)NC(=O)C(=O)N2,-5.1655
atropic acid,OC(=O)C(=C)c1ccccc1,-2.0568
2-amino-1-phenyl-propan-1-ol,C[C@H](N)[C@@H](O)c1ccccc1,-0.8786
alpha-d-glucose,OC[C@H]1O[C@H](O)[C@H](O)[C@@H](O)[C@@H]1O,0.4433
"1,3-cyclohexanedione, 5-phenyl-",OC1=CC(=O)C[C@@H](C1)c2ccccc2,-2.5113
anabasine,C1CC[C@H](NC1)c2cccnc2,0.7898
gentisyl alcohol,OCc1cc(O)ccc1O,0.8534
bayer 15080,O=Nc1ccc(NNC(=O)c2ccccc2)cc1,-4.6835
salinazid,O=C(NN\C=C/1C=CC=CC1=O)c2ccncc2,-3.6835
"1h-indole, 2,3-dihydro-",C1Cc2ccccc2N1,-1.0427
"2-butenal, 2-methyl-, (e)-",C\C=C(/C)C=O,-0.527
"1,3-dioxolane, 2-methyl-",CC1OCCO1,0.8789
norcamphor,O=C1CC2CCC1C2,-1.7565
"3-hydroxy-4-oxo-4h-pyran-2,6-dicarboxylic acid",OC(O)=C1OC(=CC(=O)C1=O)C(O)=O,-1.3769999999999998
"ethanone, 1-(4-hydroxy-3-methoxyphenyl)-",COc1cc(ccc1O)C(C)=O,-1.5216
norvaline,CCC[C@@H](N)C(O)=O,-0.0687
citraconic acid,C\C(=C\C(O)=O)C(O)=O,0.7795
"phenol, 2-methyl-5-(1-methylethyl)-",CC(C)c1ccc(C)c(O)c1,-2.0798
beta-eucaine,CC1CC(CC(C)(C)N1)OC(=O)c2ccccc2,-1.922
"acetic acid, oxo(phenylamino)-",OC(=O)C(=O)Nc1ccccc1,-1.3019
n-benzyl-3-chloropropanamide,ClCCC(=O)NCc1ccccc1,-3.2959
"2-butenoic acid, 4-[(aminocarbonyl)amino]-4-oxo-",NC(=O)NC(=O)C=CC(O)=O,-1.9202
bis(ethylxanthogen),CCOC(=S)SSC(=S)OCC,-4.9432
trimethyleneoxide,C1COC1,1.236
(z)-2-butenoic acid (isocrotonic acid),C\C=C/C(O)=O,1.065
4-aminopyridine,Nc1ccncc1,-0.0529
2-aminopyridine,Nc1ccccn1,0.9757
"1,4-dithiane",C1CSCCS1,-1.6029
suberic acid,OC(=O)CCCCCCC(O)=O,-1.1673
di-2-chloroethyl sulfide,ClCCSCCCl,-2.3666
"2,4-hexadienedioic acid,",OC(=O)\C=C/C=C\C(O)=O,-2.8516
iodine cyanide,IC#N,-0.6333
2-bromo-2-methylpropane,CC(C)(C)Br,-2.3586
borneol,CC1(C)C2CCC1(C)C(O)C2,-2.3202
hydrocortisone tebutate,CC(C)(C)CC(=O)OCC(=O)C1(O)CCC2C3CCC4=CC(=O)CCC4(C)C3C(O)CC12C,-5.5111
tetranitromethane,[O-][N+](=O)C([N+]([O-])=O)([N+]([O-])=O)[N+]([O-])=O,-2.3381
pholcodine,CN1CC[C@]23[C@H]4Oc5c(OCCN6CCOCC6)ccc(C[C@@H]1C2C=C[C@@H]4O)c35,-1.2994
"2,4,6(1h,3h,5h)-pyrimidinetrione, 5-ethyl-5-(1-p",CCC1(N2CCCCC2)C(=O)NC(=O)NC1=O,-2.1562
diosgenin,C[C@@H]1CC[C@@]2(OC1)O[C@H]3C[C@H]4[C@@H]5CC=C6C[C@@H](O)CC[C@]6(C)[C@H]5CC[C@]4(C)[C@H]3[C@@H]2C,-7.3166
raffinose,OC[C@H]1O[C@H](OC[C@H]2O[C@H](O[C@]3(CO)O[C@H](CO)[C@@H](O)[C@@H]3O)[C@H](O)[C@@H](O)[C@@H]2O)[C@H](O)[C@@H](O)[C@H]1O,-0.3962
tripropyl phosphate,CCCO[P](=O)(OCCC)OCCC,-1.5412
1-chloro-2-methylpropene,CC(C)=CCl,-1.9569
methallyl alcohol,CC(=C)CO,0.4298
2-butanethiol,CCC(C)S,-1.8346
"2,3-dimethyl-1,3-butadiene",CC(=C)C(C)=C,-2.4014
acetoin,CC(O)C(C)=O,1.055
abietic acid,CC(C)C1=CC2=CC[C@@H]3[C@](C)(CCC[C@@]3(C)C(O)=O)[C@H]2CC1,-3.7959
"3,11-dihydroxy-androstan-17-one",CC12CC[C@H](O)CC1CCC3C4CCC(=O)C4(C)CC(O)C23,-3.5932
"benzeneacetic acid, .alpha.-hydroxy-.alpha.-meth",CC(O)(C(O)=O)c1ccccc1,-0.8949
methyl malonic acid,CC(C(O)=O)C(O)=O,0.7597
dl-valine,CC(C)C(N)C(O)=O,-0.1971
beta-peltatin,COc1cc(cc(OC)c1OC)[C@H]2[C@@H]3[C@H](COC3=O)Cc4c(O)c5OCOc5cc24,-4.5035
fluorescein,Oc1ccc2c(Oc3cc(O)ccc3C24OC(=O)c5ccccc45)c1,-3.8226
"6-formyl-2,3-dimethoxybenzoic acid",COc1ccc(C=O)c(C(O)=O)c1OC,-1.9247
dioxypyramidon,CN(C)C(=O)C(=O)N(N(C)C(C)=O)c1ccccc1,-0.5345
"8-quinolinol, 5,7-dibromo-",Oc1c(Br)cc(Br)c2cccnc12,-4.1938
hydroquinine,CCC1CN2CCC1CC2C(O)c3ccnc4ccc(OC)cc34,-3.0514
"1,6-naphthalenedisulfonic acid",O[S](=O)(=O)c1ccc2c(cccc2[S](O)(=O)=O)c1,0.5402
propranolol,CC(C)NCC(O)COc1cccc2ccccc12,-3.6202
tryptazan,NC(Cc1[nH]nc2ccccc12)C(O)=O,-1.4091
allaric acid,O[C@H]([C@H](O)[C@H](O)C(O)=O)[C@@H](O)C(O)=O,-0.3225
sodium gluconate,[Na+].OCC(O)C(O)C(O)C(O)C([O-])=O,0.4321
cupric gluconate,[Cu++].OC[C@@H](O)[C@@H](O)[C@H](O)[C@@H](O)C([O-])=O.OC[C@@H](O)[C@@H](O)[C@H](O)[C@@H](O)C([O-])=O,-0.1798
thiophene-2-carboxylic acid,OC(=O)c1sccc1,-1.2327
1-methyl-2-isopropylbenzene,CC(C)c1ccccc1C,-3.7606
"ethanedione, bis(2-hydroxy-5-nitrophenyl)-",Oc1ccc(cc1C(=O)C(=O)c2cc(ccc2O)[N+]([O-])=O)[N+]([O-])=O,-3.5214
"ethanone, 1-(2,3,4-trihydroxyphenyl)-",CC(=O)c1ccc(O)c(O)c1O,-2.0216
trimellitic acid,OC(=O)c1ccc(C(O)=O)c(c1)C(O)=O,-1.0003
"3,4-dinitrobenzoic acid",OC(=O)c1ccc(c(c1)[N+]([O-])=O)[N+]([O-])=O,-1.5005
n-(aminocarbonyl)-2-(1-methylethyl)4-pentenamide,CC(C)C(CC=C)C(=O)NC(N)=O,-2.7469
anthranol,Oc1c2ccccc2cc3ccccc13,-4.7329
"1,1-diphenylethylene",C=C(c1ccccc1)c2ccccc2,-4.4363
"1,2-cycloheptanedione, dioxime",ONC1=C(CCCCC1)N=O,-1.4249
"2h-1-benzopyran-2-one, 7-methoxy-",COc1ccc2C=CC(=O)Oc2c1,-3.1221
"1,2-propanediol, 3-(2-methoxyphenoxy)-, 1-carbam",COc1ccccc1OCC(O)COC(N)=O,-1.5251
"benzoic acid, sodium salt",[Na+].[O-]C(=O)c1ccccc1,0.5864
c.i. basic orange 2,[H+].[Cl-].Nc1ccc(N=Nc2ccccc2)c(N)c1,-4.0947
"2,4-d, ethyl ester",CCOC(=O)COc1ccc(Cl)cc1Cl,-3.3503
"1,3-benzenediol, 4-pentyl-",CCCCCc1ccc(O)cc1O,-1.9548
isovaleryl diethylamide,CCN(CC)C(=O)CC(C)C,-0.5946
dmtt (dazomet),CN1CSC(=S)N(C)C1,-1.7331
"2-propanol, 1,3-diiodo-",OC(CI)CI,-1.3971
"n,n-dimethylthiourea",CNC(=S)NC,0.9823
"1,1-dimethoxyethane",COC(C)OC,1.0452
butyl malonic acid,CCCCC(C(O)=O)C(O)=O,0.4369
m-cymene,CC(C)c1cccc(C)c1,-3.4994
2-chloro-4-methyl-6-(dimethylamino)pyrimidine,CN(C)c1cc(C)nc(Cl)n1,-1.2615
digallic acid,OC(=O)c1cc(O)c(O)c(OC(=O)c2cc(O)c(O)c(O)c2)c1,-2.8092
4-ethylpyridine,CCc1ccncc1,-0.0006
"2,6-dibromoquinonechloroimide",ClN=C1C=C(Br)C(=O)C(=C1)Br,-3.7068
"l-tyrosine, n-methyl-",CN[C@@H](Cc1ccc(O)cc1)C(O)=O,-2.1325
bis(2-chloroethyl)ethylamine,CCN(CCCl)CCCl,-3.0265
butyl cinnamate,CCCCOC(=O)/C=C/c1ccccc1,-1.6112
benzyl methyl ether,COCc1ccccc1,-1.6098
c.i. disperse black 3,CN(C)c1ccc(cc1)N=Nc2ccc(N)cc2,-4.593999999999999
"2-propenoic acid, 3-(2-furanyl)-",OC(=O)/C=C/c1occc1,-1.8392
ethyl valerate,CCCCC(=O)OCC,-1.7706
2-methylpropyl propanoate,CCC(=O)OCC(C)C,-1.8841
"cyclopropane, methoxy-",COC1CC1,-0.1176
"1,2-ethylene dibromide",Br\C=C/Br,-1.3195
2-bromoethanol,OCCBr,0.9032
ethyl methyl ether,CCOC,-0.0799
"1,2-dimethylhydrazine",CNNC,1.2211
"2,2,4-trimethylpentane",CC(C)CC(C)(C)C,-4.6704
t-butyl acetate,CC(=O)OC(C)(C)C,-1.1443
dodecamethylcyclohexasiloxane,C[Si]1(C)O[Si](C)(C)O[Si](C)(C)O[Si](C)(C)O[Si](C)(C)O[Si](C)(C)O1,-7.9407
decamethylcyclopentasiloxane,C[Si]1(C)O[Si](C)(C)O[Si](C)(C)O[Si](C)(C)O[Si](C)(C)O1,-7.3387
dichloro(2-chlorovinyl)arsine (trans),Cl/C=C/[As](Cl)Cl,-2.6177
"1,1-dichlorobutane",CCCC(Cl)Cl,-2.4036
barium formate,[Ba++].[O-]C=O.[O-]C=O,-0.0557
"butanoic acid, 3-amino-",CC(N)CC(O)=O,0.9867
acetoacetic acid,CC(=O)CC(O)=O,0.991
thioimidodicarbonic diamide,NC(=S)NC(N)=S,-1.6996
"2h-pyran-2,4(3h)-dione, 6-methyl-",CC1=CC(=O)CC(=O)O1,-1.1185
chlorocyclohexane,ClC1CCCCC1,-2.3752
"hexanedioic acid, 2-amino-",NC(CCCC(O)=O)C(O)=O,-1.8648
isobutyl formate,CC(C)COC=O,-1.0006
n-butyl iodide,CCCCI,-2.9587
bis(chloromethyl) ether,ClCOCCl,-0.7181
cyclopentadiene,C1C=CC=C1,-1.565
"ethanesulfonic acid, 2-[(aminoiminomethyl)amino]",NC(N)=NCC[S](O)(=O)=O,-0.6321
isobutyl nitrate,CC(C)CO[N+]([O-])=O,-1.9521
1-chloropentane,CCCCCCl,-2.7324
barium acetate,[Ba++].CC([O-])=O.CC([O-])=O,0.1948
n-methyl butylcarbamate,CC(C)CCOC(N)=O,-1.4403
"1-butanol, 3-methyl-, nitrate",CC(C)CCO[N+]([O-])=O,-2.4809
strontium acetate,[Sr++].CC([O-])=O.CC([O-])=O,0.1446
pentanedinitrile,N#CCCCC#N,1.0263
n-hexadecane,CCCCCCCCCCCCCCCC,-8.4007
n1-(4-so2nh2-ph)sulfanilamide,Nc1ccc(cc1)[S](=O)(=O)Nc2ccc(cc2)[S](N)(=O)=O,-2.7592
"2-hydroxypropanoic acid, methyl ester",COC(=O)C(C)O,0.9825
alpha-methylene butyrolactone,C=C1CCOC1=O,0.1844
hyocholic acid,C[C@H](CCC(O)=O)[C@H]1CC[C@H]2[C@@H]3[C@H](O)[C@H](O)[C@@H]4C[C@H](O)CC[C@]4(C)[C@H]3CC[C@]12C,-4.3465
ethyl biscoumacetate,CCOC(=O)C(C1=C(O)Oc2ccccc2C1=O)C3=C(O)Oc4ccccc4C3=O,-3.4264
o-thymotic acid,CC(C)c1ccc(C)c(C(O)=O)c1O,-3.2883
amisometradine,CN1C(=O)C=C(N)N(CC(C)=C)C1=O,-0.9895
nebularine,OC[C@H]1O[C@H]([C@H](O)[C@@H]1O)n2cnc3cncnc23,-0.4018
1-nitro-2-naphthol,Oc1ccc2ccccc2c1[N+]([O-])=O,-2.9758
"2,4,6-trichloro-3-methylphenol",Cc1c(Cl)cc(Cl)c(O)c1Cl,-3.2761
9-methyl-9-azabicyclo[3.3.1]nonan-3-one,CN1C2CCCC1CC(=O)C2,0.4167
"3-pyridinecarboxylic acid, hydrazide",NNC(=O)c1cccnc1,-0.1372
5-nitro-2-propoxyaniline,CCCOc1ccc(cc1N)[N+]([O-])=O,-3.1592
methyl oxalate,COC(=O)C(=O)OC,-0.2919
methyldopa,C[C@](N)(Cc1ccc(O)c(O)c1)C(O)=O,-1.3247
maleanilic acid,OC(=O)\C=C/C(=O)Nc1ccccc1,-2.2815
nifuradene,[O-][N+](=O)c1oc(cc1)\C=N\N2CCNC2=O,-3.3572
d-tyrosine,N[C@H](Cc1ccc(O)cc1)C(O)=O,-2.6049
dl-tyrosine,NC(Cc1ccc(O)cc1)C(O)=O,-2.6561
zinc valerate,[Zn++].CCCCC([O-])=O.CCCCC([O-])=O,-1.2722
oxiranemethanol,OCC1CO1,1.1303
2-pyrimidone,O=C1NC=CC=N1,0.6749
methyl propyl ether,CCCOC,-0.3857
1-monobutyrin,CCCC(=O)OCC(O)CO,-1.335
zinc acetate,[Zn++].CC([O-])=O.CC([O-])=O,0.2179
allyl ether,C=CCOCC=C,-0.0206
zinc formate,[Zn++].[O-]C=O.[O-]C=O,-0.4755
carbon tetrabromide,BrC(Br)(Br)Br,-3.1404
fluoromethyl sulfone,C[S](F)(=O)=O,-0.5145
"2-propanol, 1-chloro-2-methyl-",CC(C)(O)CCl,0.1602
"methane, bromotrinitro-",[O-][N+](=O)C(Br)([N+]([O-])=O)[N+]([O-])=O,-1.7705
heroin,CN1CC[C@]23[C@H]4Oc5c(OC(C)=O)ccc(C[C@@H]1[C@@H]2C=C[C@@H]4OC(C)=O)c35,-2.7894
"3,3-dimethylpentane",CCC(C)(C)CC,-4.2286
ethion,CCO[P](=S)(OCC)SCS[P](=S)(OCC)OCC,-5.2838
3-methyl-1-butene,CC(C)C=C,-2.732
2-methyl-1-butene,CCC(C)=C,-2.7307
3-chloro-2-methylpropene,CC(=C)CCl,-1.8108
"1,2-dichloropropene",C\C(Cl)=C\Cl,-1.6138
"2-butanol, 3-chloro-",CC(O)C(C)Cl,-0.2122
"1,2:3,4-diepoxybutane",C1O[C@@H]1[C@H]2CO2,1.065
"2,2,3-trimethylpentane",CCC(C)C(C)(C)C,-4.6776
"2,3-dimethylpentane",CCC(C)C(C)C,-4.2808
3-methyl-2-pentanol,CCC(C)C(C)O,-0.7216
3-methylpentan-2-one,CCC(C)C(C)=O,-0.6805
2-methyl-3-pentanol,CCC(O)C(C)C,-0.7062
2-methyl-3-pentanone,CCC(=O)C(C)C,-0.8106
"propanoic acid, 3-amino-2-hydroxy-",NCC(O)C(O)=O,-0.8229
2-bromo-3-methyl-butanoic acid,CC(C)C(Br)C(O)=O,-1.103
"2,3,4-trimethylpentane",CC(C)C(C)C(C)C,-4.6961
"2,4-dimethyl-3-pentanone",CC(C)C(=O)C(C)C,-1.3018
"butanoic acid, 3-amino-2-hydroxy-",CC(N)C(O)C(O)=O,-0.3535
alpha-peltatin,COc1cc(cc(OC)c1O)[C@H]2[C@@H]3[C@H](COC3=O)Cc4c(O)c5OCOc5cc24,-4.1254
meconin,COc1ccc2COC(=O)c2c1OC,-1.8903
"1h-imidazole-4,5-dicarboxylic acid",OC(=O)c1[nH]cnc1C(O)=O,-2.4944
inositol monophosphate,OC1C(O)C(O)C(O[P](O)(O)=O)C(O)C1O,0.1076
"benzoic acid, 2-hydroxy-, methoxymethyl ester",COCOC(=O)c1ccccc1O,-2.3
"3,4-piperidinedicarboxylic acid",OC(=O)C1CCNCC1C(O)=O,-0.5395
1-aminoacridine,Nc1cccc2nc3ccccc3cc12,-4.222
meso-hydrobenzoin,OC(C(O)c1ccccc1)c2ccccc2,-1.933
"2,6-diethylaniline",CCc1cccc(CC)c1N,-2.3478
2-bromonaphthalene,Brc1ccc2ccccc2c1,-4.4001
3-quinolinol,Oc1cnc2ccccc2c1,-2.3925
7-quinolinol,[O-]c1ccc2ccc[nH+]c2c1,-2.5038
chlorazine,CCN(CC)c1nc(Cl)nc(n1)N(CC)CC,-4.4112
anatabine,C1N[C@@H](CC=C1)c2cccnc2,0.7953
"2,3'-bipyridine",c1ccc(nc1)c2cccnc2,-0.5916
"8h-purine-8-thione, 1,7-dihydro-",S=C1Nc2cncnc2N1,-2.5243
potassium oxalate,[K+].[K+].[O-]C(=O)C([O-])=O,0.1773
allethrin,CC(C)=CC1C(C(=O)OC2CC(=O)C(=C2C)CC=C)C1(C)C,-4.8179
"alanine, n-(aminocarbonyl)-",C[C@H](NC(N)=O)C(O)=O,-0.7845
"phenol, 3-(1,1-dimethylethyl)-",CC(C)(C)c1cccc(O)c1,-1.8614
3-bromo-1-nitrobenzene,[O-][N+](=O)c1cccc(Br)c1,-1.3054
"1-propene-1,2,3-tricarboxylic acid, (z)-",OC(=O)C\C(=C/C(O)=O)C(O)=O,0.3612
lactitol,OCC(O)C(O)C(OC1OC(CO)C(O)C(O)C1O)C(O)CO,0.2872
melibiose,OCC1OC(OCC2OC(O)C(O)C(O)C2O)C(O)C(O)C1O,0.4656
"3,5-dinitrophenol",Oc1cc(cc(c1)[N+]([O-])=O)[N+]([O-])=O,-1.663
"1,4-benzenedicarboxylic acid, 2-bromo-",OC(=O)c1ccc(C(O)=O)c(Br)c1,-2.1339
4-pyridinemethanol,OCc1ccncc1,0.9621
"2-propanol, 1,3-dichloro-, carbamate",NC(=O)OC(CCl)CCl,-1.3605
m-methylbenzyl alcohol,Cc1cccc(CO)c1,-0.3879999999999999
"3,5-dichlorophenoxyacetic acid",OC(=O)COc1cc(Cl)cc(Cl)c1,-2.3617
m-chlorophenoxyacetic acid,OC(=O)COc1cccc(Cl)c1,-2.1954
stilbene,c1ccc(cc1)\C=C\c2ccccc2,-5.7905
"1,4-benzenedimethanol",OCc1ccc(CO)cc1,-0.3861
3-methylhexane,CCCC(C)CC,-4.3063
3-hexanone,CCCC(=O)CC,-0.8334
3-methylheptane,CCCCC(C)CC,-5.1591
"1,4-dimethylcyclohexane",CC1CCC(C)CC1,-4.4657
n-butyl propionate,CCCCOC(=O)CC,-1.9385
"1,2-diiodoethene (cis)",I\C=C/I,-2.7813
potassium formate,[K+].[O-]C=O,0.9288
"2,2-dimethylpentane",CCCC(C)(C)C,-4.3575
2-methyl-2-pentanol,CCCC(C)(C)O,-0.4988
bethanechol chloride,[Cl-].CC(C[N+](C)(C)C)OC(N)=O,0.5021
"2,2-dimethylhexane",CCCCC(C)(C)C,-5.7568
dicyanodiamidine sulfate,NC(N)=NC(N)=O.NC(N)=NC(N)=O.O[S](O)(=O)=O,-0.7814
3-methylcyclohexanone,CC1CCCC(=O)C1,-1.8738
1-methylcyclohexene,CC1=CCCCC1,-3.2671
2-methylhexane,CCCCC(C)C,-4.5961
allyl acetate,CC(=O)OCC=C,-0.5534
1-chloro-2-butene,C/C=C/CCl,-1.9569
2-heptene,CCCC\C=C\C,-3.816
n-butylformate,CCCCOC=O,-1.1307
chlorofluoromethane,FCCl,-0.8202
dimethyl selenide,C[Se]C,-0.6502
"acetamide, 2,2,2-tribromo-",NC(=O)C(Br)(Br)Br,-1.2668
trichloroacetamide,NC(=O)C(Cl)(Cl)Cl,-1.0966
"1,1-dichloro-1-nitroethane",CC(Cl)(Cl)[N+]([O-])=O,-1.7603
"2,3-dimethyl-3-pentanol",CCC(C)(O)C(C)C,-0.8504
"1,1-dichloro-1-nitropropane",CCC(Cl)(Cl)[N+]([O-])=O,-1.4996
"2-ethyl-2-nitro-1,3-propanediol",CCC(CO)(CO)[N+]([O-])=O,0.8264
"3-hydroxy-2,2-dimethylpropanal",CC(C)(CO)C=O,-0.3279
"2-propanol, 1,3-dichloro-2-methyl-",CC(O)(CCl)CCl,-0.1822
"1,3-propanediol, 2,2-bis (acetyloxy)methyl -, di",CC(=O)OCC(COC(C)=O)(COC(C)=O)COC(C)=O,-1.5686
"4-heptanol, 4-methyl-",CCCC(C)(O)CCC,-1.5867
"oxirane, 2-(chloromethyl)-2-methyl-",CC1(CCl)CO1,-0.5504
"1,2-dibromo-1-chloroethane",ClC(Br)CBr,-2.5546
methyl isopropyl ether,COC(C)C,-0.057
"acetamide, 2,2-dibromo-",NC(=O)C(Br)Br,-1.0574
"1,1,2-trichloropropane",CC(Cl)C(Cl)Cl,-1.8898
2-chloropropionic acid,CC(Cl)C(O)=O,0.9645
"ethane, 1-chloro-1-nitro-",CC(Cl)[N+]([O-])=O,-1.4374
"benzenesulfonic acid, 4-methyl-, 2-methylphenyl",Cc1ccc(cc1)[S](=O)(=O)Oc2ccccc2C,-3.9417
"ethane, 1,1,1-trichloro-2,2-diethoxy-",CCOC(OCC)C(Cl)(Cl)Cl,-1.6464
1-chloro-1-nitropropane,CCC(Cl)[N+]([O-])=O,-1.1887
"2,4-dimethyl-3-pentanol",CC(C)C(O)C(C)C,-1.2201
ethylmalonic acid,CCC(C(O)=O)C(O)=O,0.7315
"acenaphthylene, 1,2-dihydro-5-nitro-",[O-][N+](=O)c1ccc2CCc3cccc1c23,-5.3403
"benzoic acid, 2,6-dibromo-3,4,5-trihydroxy-",OC(=O)c1c(Br)c(O)c(O)c(O)c1Br,-0.4188
"3-methyl-2,4,6-trinitrophenol",Cc1c(cc(c(O)c1[N+]([O-])=O)[N+]([O-])=O)[N+]([O-])=O,-2.0434
proxyphylline,CC(O)Cn1cnc2N(C)C(=O)N(C)C(=O)c12,0.623
3-nitrophthalic acid,OC(=O)c1cccc(c1C(O)=O)[N+]([O-])=O,-1.0214
rosolic acid,Oc1ccc(cc1)C(c2ccc(O)cc2)=C3C=CC(=O)C=C3,-2.3837
"benzoic acid, 2-benzoyl-, ethyl ester",CCOC(=O)c1ccccc1C(=O)c2ccccc2,-3.4053
2-hydroxyanthraquinone,Oc1ccc2C(=O)c3ccccc3C(=O)c2c1,-5.3093
"benzoic acid, 2-benzoyl-, methyl ester",COC(=O)c1ccccc1C(=O)c2ccccc2,-3.4776
"2,4(1h,3h)-quinazolinedione, 6,8-dinitro-",[O-][N+](=O)c1cc2C(=O)NC(=O)Nc2c(c1)[N+]([O-])=O,-3.2057
1-methyl-2(h)-quinolinone,CN1C(=O)C=Cc2ccccc12,-1.0466
4-hydroxy-2-methylquinoline,CC1=CC(=O)c2ccccc2N1,-1.2019
"1,2,3-tribromobenzene",Brc1cccc(Br)c1Br,-5.0402
"altraric acid, d-",O[C@H]([C@H](O)[C@H](O)C(O)=O)[C@H](O)C(O)=O,0.1999
"propanedioic acid, oxo-, diethyl ester",CCOC(=O)C(=O)C(=O)OCC,0.5117
2-nitro-1-butanol,CCC(CO)[N+]([O-])=O,-0.3436
"2,4-dichloro-6-nitrophenol",Oc1c(Cl)cc(Cl)cc1[N+]([O-])=O,-4.0876
"benzoic acid, 3-formyl-2-hydroxy-",OC(=O)c1cccc(C=O)c1O,-2.4423
"2,4-dinitrobenzoic acid",OC(=O)c1ccc(cc1[N+]([O-])=O)[N+]([O-])=O,-1.0665
1-methylanthracene,Cc1cccc2cc3ccccc3cc12,-5.8541
"1(3h)-isobenzofuranone, 6-nitro-",[O-][N+](=O)c1ccc2COC(=O)c2c1,-2.6511
"1,2-benzenedimethanol",OCc1ccccc1CO,0.0569
"benzoic acid, 2-(hydroxymethyl)-",OCc1ccccc1C(O)=O,-1.5508
2-ethylnitrobenzene,CCc1ccccc1[N+]([O-])=O,-2.7993
2-nitrobenzyl alcohol,OCc1ccccc1[N+]([O-])=O,-1.4861
2-aminoanthracene,Nc1ccc2cc3ccccc3cc2c1,-5.1722
"nicotinic acid, ethyl ester",CCOC(=O)c1cccnc1,-0.4313
2-chloroiodobenzene,Clc1ccccc1I,-3.54
ethyl n-methylnitrosocarbamate,CCOC(=O)N(C)N=O,-0.5528
"1,2,4-tribromobenzene",Brc1ccc(Br)c(Br)c1,-4.808
dl-norleucine,CCCCC(N)C(O)=O,-1.0453
3-chloropentane,CCC(Cl)CC,-2.6307
1-penten-3-ol,CCC(O)C=C,0.0193
pyrrolidone,O=C1CCCN1,1.07
propylpropanedioic acid,CCCC(C(O)=O)C(O)=O,0.6803
"1,3-benzenediol, 4,6-dinitro-",Oc1cc(O)c(cc1[N+]([O-])=O)[N+]([O-])=O,-3.4086
"benzoic acid, 5-formyl-2-hydroxy-",OC(=O)c1cc(C=O)ccc1O,-2.6354
pentylmalonic acid,CCCCCC(C(O)=O)C(O)=O,0.5921
2-methyl-3-hexanol,CCCC(O)C(C)C,-1.3093
"benzenesulfonic acid, 3-(dimethylamino)-",CN(C)c1cccc(c1)[S](O)(=O)=O,0.2983
"2-furancarboxylic acid, 5-chloro-",[O-]C(=O)c1oc(Cl)cc1,-1.7188
helicin,OC[C@H]1O[C@@H](Oc2ccccc2C=O)[C@H](O)[C@@H](O)[C@@H]1O,-1.1985
"3,4-dimethylbenzoic acid",Cc1ccc(cc1C)C([O-])=O,-3.0653
m-nitrobenzyl alcohol,OCc1cccc(c1)[N+]([O-])=O,-2.4142
p-cyanobenzoic acid,OC(=O)c1ccc(cc1)C#N,-2.0885
p-nitrobenzyl alcohol,OCc1ccc(cc1)[N+]([O-])=O,-1.8841
4-dimethylamino benzoic acid,CN(C)c1ccc(cc1)C(O)=O,-3.3979
m-hydroxybenzyl alcohol,OCc1cccc(O)c1,-0.2678
"acetamide, 2-cyano-n-phenyl-",O=C(CC#N)Nc1ccccc1,-2.7275