Name,SMILES,Solubility
disodium selenite,[Na+].[Na+].[O-][Se]([O-])=O,0.7153884158
sodium 1-benzylpyridin-1-ium-3-carboxylate chloride,[Na+].[Cl-].[O-]C(=O)c1ccc[n+](Cc2ccccc2)c1,0.5192202667
2-methylbut-3-yn-2-amine,CC(C)(N)C#C,1.0316559884
sodium vanadiumoylolate,[Na+].[O-][V](=O)=O,0.2664613742
"disodium 2-[(5-carbamoyl-1-ethyl-2-hydroxy-4-methyl-6-oxo-1,6-dihydropyridin-3-yl)diazenyl]-4-({4-[(2-chloro-5-sulfonatophenyl)amino]-6-fluoro-1,3,5-triazin-2-yl}amino)benzenesulfonate",[Na+].[Na+].CCN1C(=O)C(=N/Nc2cc(Nc3nc(F)nc(Nc4cc(ccc4Cl)[S]([O-])(=O)=O)n3)ccc2[S]([O-])(=O)=O)\C(=C(C(N)=O)C1=O)C,-0.9210343837
1-[(2-hydroxypropyl)amino]propan-2-ol,CC(O)CNCC(C)O,0.815044373
Methenamine,C1N2CN3CN1CN(C2)C3,0.7924026819
lanthanum(3+) ion trichloride,O.O.O.O.O.O.O.[Cl-].[Cl-].[Cl-].[La+3],0.3652265972
2-ethyloxirane,CCC1CO1,0.080542298
aluminium(3+) ion triformate,[Al+3].[O-]C=O.[O-]C=O.[O-]C=O,-0.2746003214999999
cyclohexanone,O=C1CCCCC1,-0.0573697280999999
diammonium [(sulfonoperoxoato sulfato)oxy]sulfonoperoxoate,[NH4+].[NH4+].[O-][S](=O)(=O)OO[S]([O-])(=O)=O,0.5710956732
(3-chloro-2-hydroxypropyl)trimethylazanium chloride,[Cl-].C[N+](C)(C)CC(O)CCl,0.6474063078
"2,2-dimethylpropane-1,3-diol",CC(C)(CO)CO,0.901422988
ethyl acetate,CCOC(C)=O,-0.025404461
"(1Z,5Z)-cycloocta-1,5-diene; rhodium; dichloride",[Cl].[Cl].[Rh].[Rh].C\1C\C=C/CC\C=C1.C\2C\C=C/CC\C=C2,-2.4997980736
"potassium hydrogen benzene-1,2-dicarboxylate",[K+].OC(=O)c1ccccc1C([O-])=O,-0.3910244327
hexasodium; dioxido-dioxotungsten; trioxotungsten,[Na+].[Na+].[Na+].[Na+].[Na+].[Na+].[O-][W]([O-])(=O)=O.[O-][W]([O-])(=O)=O.[O-][W]([O-])(=O)=O.O=[W](=O)=O.O=[W](=O)=O.O=[W](=O)=O.O=[W](=O)=O.O=[W](=O)=O.O=[W](=O)=O.O=[W](=O)=O.O=[W](=O)=O.O=[W](=O)=O,-0.4724611164
sodium 2-chloroacetate,[Na+].[O-]C(=O)CCl,0.8486241841
azepan-2-one,O=C1CCCCCN1,0.8601209136
sodium nitrite,[Na+].[O-]N=O,1.0749962334
sodium 4-methylbenzene-1-sulfonate,[Na+].Cc1ccc(cc1)[S]([O-])(=O)=O,0.6245331513
"1-N-(2-hydroxyethyl)-4-methoxybenzene-1,3-bis(aminium) sulfate",COc1ccc([NH2+]CCO)cc1[NH3+].[O-][S]([O-])(=O)=O,-0.5343422948
bis(prop-2-en-1-yl)amine,C=CCNCC=C,-0.0790069571
dimethyl {3-[(hydroxymethyl)amino]-3-oxopropyl}phosphonate,CO[P](=O)(CCC(=O)NCO)OC,1.5784906741
"2,2'-ethene-1,2-diylbis[5-({4-anilino-6-[bis(2-hydroxyethyl)amino]-1,3,5-triazin-2-yl}amino)benzenesulfonic acid]",OCCN(CCO)c1nc(Nc2ccccc2)nc(Nc3ccc(\C=C\c4ccc(Nc5nc(Nc6ccccc6)nc(n5)N(CCO)CCO)cc4[S](O)(=O)=O)c(c3)[S](O)(=O)=O)n1,-1.0592793487
hexanedinitrile,N#CCCCCC#N,-0.1309124421
3-oxo-N-phenylbutanamide,CC(=O)CC(=O)Nc1ccccc1,-1.2990810635
"1,3,3-trimethyl-2-[(1E)-[2-methyl-2-(4-methylphenyl)hydrazin-1-ylidene]methyl]-3H-indol-1-ium methyl sulfate",CO[S]([O-])(=O)=O.CN(N=CC1=[N+](C)c2ccccc2C1(C)C)c3ccc(C)cc3,-1.6762060534999998
"2-[(1E)-[2-(4-methoxyphenyl)-2-methylhydrazin-1-ylidene]methyl]-1,3,3-trimethyl-3H-indol-1-ium methyl sulfate",COc1ccc(cc1)N(C)N=CC2=[N+](C)c3ccccc3C2(C)C.CO[S]([O-])(=O)=O,-1.6925364836
"2-butyl-2-ethylpropane-1,3-diol",CCCCC(CC)(CO)CO,-1.2603343364
iodomethane,CI,-1.2145838492
(2E)-2-methylpent-2-enal,CC\C=C(/C)C=O,-1.0573697281
Pyromellitic dianhydride,O=C1OC(=O)c2cc3C(=O)OC(=O)c3cc12,-1.4062217243
butyl 4-oxopentanoate,CCCCOC(=O)CCC(C)=O,-1.306674746
"5-methyl-octahydro-2-benzofuran-1,3-dione",CC1CCC2C(C1)C(=O)OC2=O,-1.3015260488
calcium bis(2-ethylhexanoate),[Ca++].CCCCC(CC)C([O-])=O.CCCCC(CC)C([O-])=O,-1.5917155587
"2,6-dimethylaniline",Cc1cccc(C)c1N,-1.167514488
"1,4-dimethyl cyclohexane-1,4-dicarboxylate",COC(=O)C1CCC(CC1)C(=O)OC,-1.3871946661
"sodium 1,4-bis[(2-ethylhexyl)oxy]-1,4-dioxobutane-2-sulfonate",[Na+].CCCCC(CC)COC(=O)CC(C(=O)OCC(CC)CCCC)[S]([O-])(=O)=O,-1.7357141887
4-aminobenzamide,NC(=O)c1ccc(N)cc1,-1.2255453859
"1,3-dimethyl-3,7-dihydro-1H-purine-2,6-dione",CN1C(=O)N(C)c2nc[nH]c2C1=O,-1.3525852601
"2,2,4-trimethylhexanedinitrile; 2,4,4-trimethylhexanedinitrile",CC(CC#N)CC(C)(C)C#N.CC(CC(C)(C)CC#N)C#N,-1.5746822213999998
benzyldimethylamine,CN(C)Cc1ccccc1,-1.2279188258
trichloromethane,ClC(Cl)Cl,-1.1738343117
ammonium bromide,[NH4+].[Br-],1.908299785
oxolan-2-ylmethyl prop-2-enoate,C=CC(=O)OCC1CCCO1,-0.2954517157
potassium 4-(acetoacetylamino)benzenesulfonate,[K+].CC(=O)CC(=O)Nc1ccc(cc1)[S]([O-])(=O)=O,0.4217473345
"(5R)-5-[(1S)-1,2-dihydroxyethyl]-4-ethoxy-3-hydroxy-5H-furan-2-one",CCOC1=C(O)C(=O)O[C@@H]1[C@@H](O)CO,0.5809706515999999
tetrasodium (1-hydroxy-1-phosphonatoethyl)phosphonate,[Na+].[Na+].[Na+].[Na+].CC(O)([P]([O-])([O-])=O)[P]([O-])([O-])=O,0.4204601089999999
"1,4-dimethyl (2Z)-but-2-enedioate",COC(=O)\C=C/C(=O)OC,-0.2672048758999999
"2-methylbenzene-1,4-diol",Cc1cc(O)ccc1O,-0.2074175173999999
"1,3-dimethylurea",CNC(=O)NC,0.9386362339
tetraazanium dioxido-dioxomolybdenum,[NH4+].[NH4+].[NH4+].[NH4+].[O-][Mo]([O-])(=O)=O.[O-][Mo]([O-])(=O)=O,-2.5804798622
sodium 3-[(2-carboxyethyl)(2-ethylhexyl)amino]propanoate,[Na+].CCCCC(CC)CN(CCC(O)=O)CCC([O-])=O,0.4104692649
copper(2+) diacetate,[Cu++].CC([O-])=O.CC([O-])=O,-0.3755357121
"N,N-dimethylmethanaminium chloride",[H+].[Cl-].CN(C)C,0.8993339870999999
"N-methylmethanaminium (2,4-dichlorophenoxy)acetate",CNC.OC(=O)COc1ccc(Cl)cc1Cl,0.4499772209
methyl 3-methoxypropanoate,COCCC(=O)OC,0.8026937067000001
potassium cyanate,[K+].[O-]C#N,0.9659600909
4-(vinyloxy)butan-1-ol,OCCCCOC=C,-0.18999534
potassium phosphinate,[K+].[O-]P=O,0.8626748208
sodium phosphinate,O.[Na+].[O-]P=O,0.8546356528
2-(butoxymethyl)oxirane; propan-2-amine; trifluoroborane,CCCCOCC1CO1.CC(C)N.FB(F)F,-0.5379542498
benzyltriphenylphosphanium chloride,[Cl-].C(c1ccccc1)[P+](c2ccccc2)(c3ccccc3)c4ccccc4,-0.7188245606999999
"sodium 1,4-bis(cyclohexyloxy)-1,4-dioxobutane-2-sulfonate",[Na+].[O-][S](=O)(=O)C(CC(=O)OC1CCCCC1)C(=O)OC2CCCCC2,-0.7147015973999999
"2-[2-[4-[(2-cyanoethyl)methylamino]phenyl]vinyl]-1,3,3-trimethyl-3H-indolium hydrogen sulphate",CN(CCC#N)c1ccc(cc1)C=CC2=[N+](C)c3ccccc3C2(C)C.[O-][S]([O-])(=O)=O,-0.7741720686
disodium [(sulfonoperoxoato sulfato)oxy]sulfonoperoxoate,[Na+].[Na+].[O-][S](=O)(=O)OO[S]([O-])(=O)=O,0.4865525209
sodium 4-{5-hydroxy-3-methyl-4-[(E)-2-[4-methyl-3-(phenylsulfamoyl)phenyl]diazen-1-yl]-1H-pyrazol-1-yl}benzene-1-sulfonate,[Na+].CC1=NN(C(=O)C1N=Nc2ccc(C)c(c2)[S](=O)(=O)Nc3ccccc3)c4ccc(cc4)[S]([O-])(=O)=O,-0.8725523685
acrylic acid,OC(=O)C=C,0.0059673299
methanamine,CN,1.3686434782
iron(3+) ion sodium 2-({2-[bis(carboxylatomethyl)amino]ethyl}(carboxylatomethyl)amino)acetate,[Na+].[Fe+3].[O-]C(=O)CN(CCN(CC([O-])=O)CC([O-])=O)CC([O-])=O,-0.7073891823999999
Dihydrodicyclopentadienyl acrylate,C=CC(=O)OC1C=CC2C3CCC(C3)C12,-3.7081424715
sodium prop-2-ene-1-sulfonate,[Na+].[O-][S](=O)(=O)CC=C,0.6949528649
"tetrasodium 3-[(E)-2-(4-{[4-({4-[(E)-2-(4,8-disulfonatonaphthalen-2-yl)diazen-1-yl]-3-methylphenyl}amino)-6-[(2-hydroxyethyl)amino]-1,3,5-triazin-2-yl]amino}-2-methylphenyl)diazen-1-yl]naphthalene-1,5-disulfonate",[Na+].[Na+].[Na+].[Na+].Cc1cc(Nc2nc(NCCO)nc(Nc3ccc(N=Nc4cc5c(cccc5[S]([O-])(=O)=O)c(c4)[S]([O-])(=O)=O)c(C)c3)n2)ccc1N=Nc6cc7c(cccc7[S]([O-])(=O)=O)c(c6)[S]([O-])(=O)=O,-1.1748734719
"2-(6-methoxybenzofuran-2-yl)-1,3-dimethyl-5-(methylsulphonyl)1H-benzimidazolium acetate",COc1ccc2cc(oc2c1)C3N(C)c4cc(ccc4[NH+]3C)[S](C)(=O)=O.CC([O-])=O,0.2125744685999999
2-[4-(2-hydroxyethyl)piperazin-1-yl]ethanesulfonic acid,[Na+].OCCN1CCN(CC1)CC[S]([O-])(=O)=O,0.4318666789
L-prolinamide,NC(=O)[C@@H]1CCC[NH2+]1,0.7853597575
"1,2,4-triazole",[nH]1cncn1,1.0058274476
bromide,[H+].[Br-],1.3775443727
sodium formate,[Na+].[O-]C=O,1.0125444228
"benzene-1,4-diol",Oc1ccc(O)cc1,-0.1967366109
"acid D,L-aspart",NC(CC(O)=O)C(O)=O,-1.2293181874
ethyltriphenylphosphanium iodide,[I-].CC[P+](c1ccccc1)(c2ccccc2)c3ccccc3,-1.7271281938
ammonium trioxovanadate(1-),[V],-0.8144249576
2-[(4-aminophenyl)amino]-5-nitrobenzene-1-sulfonic acid,Nc1ccc(Nc2ccc(cc2[S](O)(=O)=O)[N+]([O-])=O)cc1,-1.5982895297
"1,3,3-trimethyl-2-[(E)-2-(1-methyl-2-phenyl-1H-indol-3-yl)ethenyl]-3H-indol-1-ium chloride",[Cl-].Cn1c2ccccc2c(C=CC3=[N+](C)c4ccccc4C3(C)C)c1c5ccccc5,-1.743927996
"3,4-dihydro-2H-pyran",C1COC=CC1,-1.0383982131
"octane-1,2-diol",CCCCCCC(O)CO,-1.2899752166
ethylbis(propan-2-yl)amine,CCN(C(C)C)C(C)C,-1.2416022633
"disodium 4,8-diamino-1,5-dihydroxy-9,10-dioxo-9,10-dihydroanthracene-2,6-disulfonate",[Na].Nc1cc(c(O)c2C(=O)c3c(N)cc(c(O)c3C(=O)c12)[S](O)(=O)=O)[S](O)(=O)=O,-1.7991126191
"propan-2-yl 2,2,2-trifluoroacetate",CC(C)OC(=O)C(F)(F)F,-1.336078753
disodium 5-({4-[(2-bromoacryloyl)amino]-2-sulfonatophenyl}diazenyl)-4-hydroxy-6-(methylamino)naphthalene-2-sulfonate,[Na+].[Na+].CN=C1C=CC2=CC(=CC(=O)C2=C1NNc3ccc(NC(=O)C(Br)=C)cc3[S]([O-])(=O)=O)[S]([O-])(=O)=O,-1.9476532093
sodium 3-[[4-[(2-ethoxy-5-methylphenyl)azo]-1-naphthyl]azo]benzenesulphonate,[Na+].CCOc1ccc(C)cc1N=Nc2ccc(N=Nc3cccc(c3)[S]([O-])(=O)=O)c4ccccc24,-1.8471355444
(2E)-but-2-enedioic acid,OC(=O)\C=C\C(O)=O,-1.2196294277
1-[(2-hydroxypropyl)(4-methylphenyl)amino]propan-2-ol,CC(O)CN(CC(C)O)c1ccc(C)cc1,-1.5038218002
diethyl sulfate,CCO[S](=O)(=O)OCC,-1.3429497185
"sodium 1-amino-4-({4-[(N-methyl4-methylbenzenesulfonamido)methyl]phenyl}amino)-9,10-dioxo-9,10-dihydroanthracene-2-sulfonate",[Na+].CN(Cc1ccc(Nc2cc(c(N)c3C(=O)c4ccccc4C(=O)c23)[S]([O-])(=O)=O)cc1)[S](=O)(=O)c5ccc(C)cc5,-1.9428219908
potassium trifluoroacetate,[K+].[O-]C(=O)C(F)(F)F,0.6610693015
phosphorofluoridic acid,[Na+].[Na+].[O-][P]([O-])(F)=O,0.6844005874
(1-hydroxy-1-phosphonoethyl)phosphonic acid,OC=O,1.1758552936
diammonium dihydrogen 2-({2-[bis(carboxylatomethyl)amino]ethyl}(carboxylatomethyl)amino)acetate,[NH4+].[NH4+].OC(=O)CN(CCN(CC(O)=O)CC([O-])=O)CC([O-])=O,0.3226990562
3-(dodecyldimethylazaniumyl)-2-hydroxypropane-1-sulfonate,CCCCCCCCCCCC[N+](C)(C)CC(O)C[S]([O-])(=O)=O,0.2865181043
potassium bromide,[K+].[Br-],0.7556754335
2-methyl-5-nitrobenzene-1-sulfonic acid,Cc1ccc(cc1[S](O)(=O)=O)[N+]([O-])=O,0.4924399529
chromium(3+) ion acetate dihydroxide,[Cr+3].CC([O-])=O.CC([O-])=O.CC([O-])=O,0.4692256086
(2R)-2-(2-chlorophenyl)-2-hydroxyacetic acid,O[C@@H](C(O)=O)c1ccccc1Cl,-0.4390279004999999
disodium 6-hydroxy-5-[(E)-2-{4-[(E)-2-[4-(phenylamino)-3-sulfonatophenyl]diazen-1-yl]naphthalen-1-yl}diazen-1-yl]naphthalene-2-sulfonate,[Na+].[Na+].[O-][S](=O)(=O)c1ccc2c(C=CC(=O)/C2=N/Nc3ccc(N=Nc4ccc(Nc5ccccc5)c(c4)[S]([O-])(=O)=O)c6ccccc36)c1,-1.0156300044
caesium(1+) ion iodide,[I-].[Cs+],0.4112261076
"1-ethenyl-3-methyl-2,3-dihydro-1H-imidazol-1-ium chloride",[Cl-].CN1C[NH+](C=C)C=C1,0.6585802853
2-amino-3-sulfanylpropanoic acid hydrochloride,[Cl-].N[C@@H](CS)C(O)=O.[H+],0.6219271018
Ruthenium(3+) heptaacetate,[Ru+3].[Ru+3].[Ru+3].CC([O-])=O.CC([O-])=O.CC([O-])=O.CC([O-])=O.CC([O-])=O.CC([O-])=O.CC([O-])=O,-0.0356831695
butan-1-ol,CCCCO,-0.0504090528
disodium dioxomolybdenumbis(olate),[Na+].[Na+].[O-][Mo]([O-])(=O)=O,0.5020204465
iron(3+) chloride sulfate,[Cl].[Fe].[O-][S]([O-])(=O)=O,0.540234161
iron(3+) ion trichloride,[Cl-].[Cl-].[Cl-].[Fe+3],0.6028517968
iron(+2) cation sulfate,[Fe++].[O-][S]([O-])(=O)=O,0.6313327107
sodium 3-({3-methoxy-4-[(4-methoxyphenyl)diazenyl]phenyl}diazenyl)benzenesulfonate,[Na+].COc1ccc(cc1)N=Nc2ccc(cc2OC)N=Nc3cccc(c3)[S]([O-])(=O)=O,-0.8354591701
Pyrithione sodium,[Na+].[O-]N1C=CC=CC1=S,0.6370124426
"sodium (2R)-2-[(1S)-1,2-dihydroxyethyl]-4-hydroxy-5-oxo-2,5-dihydrofuran-3-olate",[Na+].OC[C@H](O)C1OC(=O)[C-](O)C1=O,0.5110430921
nickel(2+) ion dichloride,[Cl-].[Cl-].[Ni++],0.6949333776000001
"sodium (Z)-N-({3-[(4-amino-9,10-dioxo-3-sulfo-9,10-dihydroanthracen-1-yl)amino]-5-{[(Z)-(2-chloro-1-hydroxyethylidene)amino]methyl}-2,4,6-trimethylphenyl}methyl)-2-chloroethenecarboximidate",[Na+].Cc1c(CNC(=O)CCl)c(C)c(Nc2cc(c(N)c3C(=O)c4ccccc4C(=O)c23)[S]([O-])(=O)=O)c(C)c1CNC(=O)CCl,-1.0175519333
3-methylbut-2-en-1-ol,CC(C)=CCO,-0.128994642
calcium disulfamate,[Ca++].N[S]([O-])(=O)=O.N[S]([O-])(=O)=O,0.4388612161999999
"hexane-1,6-diamine",NCCCCCCN,0.7389034055
sodium hydroxymethanesulfinate,[Na+].OC[S]([O-])=O,0.731520726
1H-imidazole,[nH]1ccnc1,0.9683905422
sodium hydrogen (2S)-2-aminobutanedioate,[Na+].N[C@@H](CC(O)=O)C([O-])=O,0.6099273323
manganese bis(dihydrogen phosphate),[Mn++].[O-][P]([O-])([O-])=O.[O-][P]([O-])([O-])=O,0.4103907799
"1,1-dimethylpropyl hydroperoxide",CCC(C)(C)OO,-0.2165945745
2-phenylethan-1-amine,NCCc1ccccc1,-0.2823811698
"4-hydroxy-2,2,6,6-tetramethylpiperidinoxyl",CC1(C)CC(O)CC(C)(C)N1[O],0.5627035438
sodium 4(or 5)-methyl-1H-benzotriazolide,[Na+].Cc1cccc2n[n-]nc12,0.6051674279
"oxolane-2,5-dione",O=C1CCC(=O)O1,-0.2016662739
calcium dipropanoate,[Ca++].CCC([O-])=O.CCC([O-])=O,-0.4769347221
"2,2-bis(hydroxymethyl)propane-1,3-diol",OCC(CO)(CO)CO,-0.3416163866
2-methylpropanoic anhydride,CC(C)C(=O)OC(=O)C(C)C,0.5917902317
sodium (2S)-5-oxopyrrolidine-2-carboxylate,[Na+].[O-]C(=O)[C@@H]1CCC(=O)N1,0.6082046329
"disodium 3-{[ethyl({4-[(4-{ethyl[(3-sulfonatophenyl)methyl]iminiumyl}cyclohexa-2,5-dien-1-ylidene)(2-sulfonatophenyl)methyl]phenyl})amino]methyl}benzene-1-sulfonate",[Na+].[Na+].CCN(Cc1cccc(c1)[S]([O-])(=O)=O)c2ccc(cc2)[C+](c3ccc(cc3)N(CC)Cc4cccc(c4)[S]([O-])(=O)=O)c5ccccc5[S]([O-])(=O)=O,-0.1131580367
disodium phosphonate,[Na+].[Na+].[O-][P](=O)=O,0.6893014740000001
"2,2,4,4-tetramethylcyclobutane-1,3-diol",CC1(C)C(O)C(C)(C)C1O,-0.3736775878
"tripotassium 2-hydroxypropane-1,2,3-tricarboxylate",[K+].[K+].[K+].OC(CC([O-])=O)(CC([O-])=O)C([O-])=O,0.2961937852
"1,4-bis({3-[2-(2-hydroxyethoxy)ethoxy]propyl}amino)-9,10-dihydroanthracene-9,10-dione",OCCOCCOCCCNc1ccc(NCCCOCCOCCO)c2C(=O)c3ccccc3C(=O)c12,0.0571886956
acetic acid,CC(O)=O,1.0017178079
2-oxopentanedioic acid,OC(=O)CCC(=O)C(O)=O,0.6148800726
disodium 3-[(3-sulfonatopropyl)disulfanyl]propane-1-sulfonate,[Na+].[Na+].[O-][S](=O)(=O)CCCSSCCC[S]([O-])(=O)=O,0.2286526355
2-methylprop-2-enal,CC(=C)C=O,-0.0675110058
2-methylpropanal,CC(C)C=O,-0.0798261768
"O,O-diisopropyl hydrogen dithiophosphate",CC(C)O[P](S)(=S)OC(C)C,-0.5528547078
"N,2,3-trimethyl-2-(propan-2-yl)butanamide",CNC(=O)C(C)(C(C)C)C(C)C,-1.3948677058
carbonyl dichloride,ClC(Cl)=O,-1.1608458422
2-[1-(carboxymethyl)cyclohexyl]acetic acid,OC(=O)CC1(CCCCC1)CC(O)=O,-1.4722340504
strontium,[Sr],-1.1139433523
(2S)-5-amino-2-[(2-aminoacetyl)amino]-5-oxopentanoic acid,NC(=O)CC[C@H](NC(=O)C[NH3+])C([O-])=O,-0.194310278
"3,10-diamino-2-{[6-(4-tert-butylbenzenesulfonamido)naphthalen-2-yl]sulfonyl}-6,13-dichloro-5,12-dioxa-7,14-diazapentacene-4,11-disulfonic acid lithium potassium sodium",[Li].[Na].[K].CC(C)(C)c1ccc(cc1)[S](=O)(=O)Nc2ccc3cc(ccc3c2)[S](=O)(=O)c4cc5N=C6C(=C7Oc8c(ccc(N)c8[S](O)(=O)=O)N=C7C(=C6Oc5c(c4N)[S](O)(=O)=O)Cl)Cl,-2.1807658976
(methylsulfanyl)ethane,CCSC,-1.0569732819
benzaldehyde,O=Cc1ccccc1,-1.2095723109
2-hydroperoxy-2-(2-hydroperoxybutan-2-ylperoxy)butane,CCC(C)(OO)OOC(C)(CC)OO,-1.5077732457
2-(methylamino)-1-phenylpropan-1-ol,CN[C@@H](C)[C@@H](O)c1ccccc1,-1.4051913165
ethyl 2-methylpropanoate,CCOC(=O)C(C)C,-1.2554968887
sulfanylidenestrontium,S=[Sr],0.0036602887
"1,3-dihydro-2-benzofuran-1,3-dione",O=C1OC(=O)c2ccccc12,-1.3644249332
"(E)-1,2-dichloroethene",Cl\C=C\Cl,-1.1871803856999998
quinoline,c1ccc2ncccc2c1,-1.325093551
1-phenylethan-1-one; 2-phenylpropan-2-ol; phenol,CC(=O)c1ccccc1.CC(C)(O)c2ccccc2.Oc3ccccc3,-1.7593061432
"disodium 1-amino-4-(4-amino-9,10-dioxo-3-sulfonato-9,10-dihydroanthracen-1-yl)-9,10-dioxo-9,10-dihydroanthracene-2-sulfonate",[Na+].[Na+].Nc1c2C(=O)c3ccccc3C(=O)c2c(cc1[S]([O-])(=O)=O)c4cc(c(N)c5C(=O)c6ccccc6C(=O)c45)[S]([O-])(=O)=O,-2.0301800533
1-ethylpiperidine,CCN1CCCCC1,-1.2757105223
2-amino-5-methylbenzene-1-sulfonic acid,Cc1ccc(N)c(c1)[S](O)(=O)=O,-1.4942009905000002
"bis(2-phenyl-4,5-dihydro-1H-imidazole); benzene-1,2,4,5-tetracarboxylic acid",OC(=O)c1cc(C(O)=O)c(cc1C(O)=O)C(O)=O.C2CN=C(N2)c3ccccc3.C4CN=C(N4)c5ccccc5,-1.9594675236
imidazolidin-2-one,O=C1NCCN1,0.8402733738
iron(+3) cation; oxygen(-2) anion,[O--].[O--].[O--].[Fe+3].[Fe+3],-3.7261483073
bis(hydroxyazanium) sulfate,[NH3+]O.[NH3+]O.[O-][S]([O-])(=O)=O,0.553426318
dichlorocobalt,[Cl-].[Cl-].[Co++],0.654418336
potassium pentahydrogen diphosphate,[K+].O[P](O)(O)=O,0.6286564425
potassium (2S)-4-carboxy-2-tetradecanamidobutanoate,[K+].CCCCCCCCCCCCCC(=O)N[C@@H](CCC(O)=O)C([O-])=O,-0.8308225768999999
"1,3-bis(acetyloxy)propan-2-yl acetate",CC(=O)OCC(COC(C)=O)OC(C)=O,-0.5754367043
"2,2-dimethyloxirane",CC1(C)CO1,-0.0945494336
hexyl D-glucoside,CCCCCCOC1O[C@H](CO)[C@@H](O)[C@H](O)[C@H]1O,-0.6586987459
"2-hydroxypropane-1,2,3-tricarboxylic acid",OC(=O)CC(O)(CC(O)=O)C(O)=O,0.4768431239
"1H-1,2,4-triazol-3-amine",Nc1[nH]ncn1,0.8326929954000001
"tris(2-hydroxyethyl)-1,3,5-triazinane-2,4,6-trione",OCCN1C(=O)N(CCO)C(=O)N(CCO)C1=O,0.3403663284
"sodium dihydrogen 2-hydroxypropane-1,2,3-tricarboxylate",[Na+].OC(=O)CC(O)(CC(O)=O)C([O-])=O,0.4252480461999999
"disodium 1-amino-4-[[4-[(2-bromo-1-oxoallyl)amino]-2-sulphonatophenyl]amino]-9,10-dihydro-9,10-dioxoanthracene-2-sulphonate",[Na+].[Na+].Nc1c2C(=O)c3ccccc3C(=O)c2c(Nc4ccc(NC(=O)C(Br)=C)cc4[S]([O-])(=O)=O)cc1[S]([O-])(=O)=O,-1.0618038915
"disodium 4,4'-bis[[4-anilino-6-[(2-carbamoylethyl)(2-hydroxyethyl)amino]-1,3,5,-triazin-2-yl]amino]stilbene-2,2'-disulphonate",[Na+].[Na+].NC(=O)CCN(CCO)c1nc(Nc2ccccc2)nc(Nc3ccc(\C=C\c4ccc(Nc5nc(Nc6ccccc6)nc(n5)N(CCO)CCC(N)=O)cc4[S]([O-])(=O)=O)c(c3)[S]([O-])(=O)=O)n1,-1.2475609958
xylose,OC1COC(O)C(O)C1O,0.5778808511
"2,4-dihydroxy-N-(3-hydroxypropyl)-3,3-dimethylbutanamide",CC(C)(CO)C(O)C(=O)NCCCO,0.4376764540999999
"(2R,3R)-2,3-dihydroxybutanedioic acid",OC(C(O)C(O)=O)C(O)=O,0.5718478438
[(bis{6-[bis(phosphonomethyl)amino]hexyl}amino)methyl]phosphonic acid,O[P](O)(=O)CN(CCCCCCN(C[P](O)(O)=O)C[P](O)(O)=O)CCCCCCN(C[P](O)(O)=O)C[P](O)(O)=O,-0.0877655775
potassium hydrogen tartarate,[K+].O[C@H]([C@@H](O)C([O-])=O)C(O)=O,0.4736237943999999
dimethyl 2-acetylsuccinate,COC(=O)CC(C(C)=O)C(=O)OC,-0.5248348408
palladium(2+) ion tetraamine dihydrogen carbonate,N.N.N.N.[Pd++].OC([O-])=O.OC([O-])=O,-0.7223996879000001
2-{[4-(oxiran-2-ylmethoxy)butoxy]methyl}oxirane,C(CCOCC1CO1)COCC2CO2,-0.5608137387
palladium(2+) dichloride,[Cl-].[Cl-].[Pd++],-0.5036976261
sodium hydrogensulphide,[Na+].[SH-],0.990088732
beta-alanine,NCCC(O)=O,0.7865480445999999
"6-methoxy-2-N-methylpyridine-2,3-diamine dihydrochloride",[H+].[H+].[Cl-].[Cl-].CNc1nc(OC)ccc1N,0.3819230911
2-(sec-butylamino)ethanol,CCC(C)NCCO,0.6667009336999999
"bis(2-hydroxypropane-1,2,3-tricarboxylic acid); tris(piperazine)",OC(=O)CC(O)(CC(O)=O)C(O)=O.C1CNCCN1,0.2879414183
disodium disulphite,[Na+].[Na+].[O-][S](=O)O[S]([O-])=O,0.4533910824
(E)-1-methyl-3-nitro-2-(oxolan-3-ylmethyl)guanidine,CN=C(NCC1CCOC1)N[N+]([O-])=O,-0.5694147178
ethyl 3-ethoxypropanoate,CCOCCC(=O)OCC,-0.4317085178
N-methylcyclohexanamine,CNC1CCCCC1,-0.3214680129
methyl cyanoacetate,COC(=O)CC#N,-0.2636316857
sodium 2-hydroxyethanesulfonate,[Na+].OCC[S]([O-])(=O)=O,0.5569422141
"N,N,N-triethylethanaminium 1,1,2,2,3,3,4,4,5,5,6,6,7,7,8,8,8-heptadecafluorooctane-1-sulfonate",CC[N+](CC)(CC)CC.[O-][S](=O)(=O)C(F)(F)C(F)(F)C(F)(F)C(F)(F)C(F)(F)C(F)(F)C(F)(F)C(F)(F)F,-0.0721808988
disodium (Z)-1-(octadec-9-enyl) 2-sulphonatosuccinate,[Na+].[Na+].CCCCCCCC/C=C/CCCCCCCCOC(=O)C(CC([O-])=O)[S]([O-])(=O)=O,-0.962426912
ethyl 2-cyanoacetate,CCOC(=O)CC#N,-0.3276124069
"4-[4-[[2,5-dimethoxy-4-[[2-(sulphooxy)ethyl]sulphonyl]phenyl]azo]-4,5-dihydro-3-methyl-5-oxo-1H-pyrazol-1-yl]benzenesulphonic acid, sodium salt",[Na+].[Na+].COc1cc(c(OC)cc1N=NC2C(=NN(C2=O)c3ccc(cc3)[S]([O-])(=O)=O)C)[S](=O)(=O)CCO[S]([O-])(=O)=O,-0.0898430335
"disodium hydrogen 2-hydroxypropane-1,2,3-tricarboxylate",[Na+].[Na+].OC(=O)C(O)(CC([O-])=O)CC([O-])=O,0.3454130072
2-methylpentanedinitrile,CC(CCC#N)C#N,-0.3155007402
1-butoxypropan-2-ol,CCCCOCC(C)O,-0.4052379668
"2H-1,3-dioxol-2-one",O=C1OC=CO1,0.7770765429000001
sodium [(2-methylpropoxy)methanethioyl]sulfanide,[Na+].CCC(C)OC(S)=S,0.4688768793
3-(2-hydroxyethyl)-p-phenylenediammonium sulphate,CC(O)c1cc(N)ccc1N.[O-][S]([O-])(=O)=O,-0.6856367901
"4-methyl-1,3-oxazole-5-carbonitrile",Cc1ncoc1C#N,-0.324555733
cadmium dinitrate,[Cd++].O[N+]([O-])=O.O[N+]([O-])=O,0.3276361318
sodium (ethoxymethanethioyl)sulfanide,[Na+].CCOC([S-])=S,0.5443381649