Name,SMILES,Solubility
halfenprox,CC(C)(COCc1cccc(Oc2ccccc2)c1)c3ccc(OC(F)(F)Br)cc3,-9.9799
triazamate,CCOC(=O)CSc1nc(nn1C(=O)N(C)C)C(C)(C)C,-2.861
halofenozide,CC(C)(C)N(NC(=O)c1ccc(Cl)cc1)C(=O)c2ccccc2,-4.4404
tebufenozide,CCc1ccc(cc1)C(=O)NN(C(=O)c2cc(C)cc(C)c2)C(C)(C)C,-5.6281
cyclanilide,OC(=O)C1CC1C(=O)Nc2ccc(Cl)cc2Cl,-3.8697
fenoxaprop-p,CC(Oc1ccc(Oc2oc3cc(Cl)ccc3n2)cc1)C(O)=O,-3.092
imazamox,COCc1cnc(C2=NC(C)(C(C)C)C(=O)N2)c(c1)C(O)=O,-1.84
fenbuconazole,Clc1ccc(CCC(Cn2cncn2)(C#N)c3ccccc3)cc1,-6.2264
"2-oxetanone, 3-ethyl-4-methyl-, (3s-trans)-",CC[C@H]1[C@H](C)OC1=O,-0.6665
"azetidine, 1-[benzoyloxy(acetyl)]-",O=C(COC(=O)c1ccccc1)N2CCC2,-1.6085
"1h-azepine, hexahydro-1-[(benzoyloxy)acetyl]-",O=C(COC(=O)c1ccccc1)N2CCCCCC2,-2.5421
"4-piperidinol, 1-[(benzoyloxy)acetyl]-",OC1CCN(CC1)C(=O)COC(=O)c2ccccc2,-1.3486
"l-proline, n-[(benzoyloxy)acetyl]-",OC(=O)[C@@H]1CCCN1C(=O)COC(=O)c2ccccc2,-1.5917
"l-proline, n-[(benzoyloxy)acetyl]-, methyl ester",COC(=O)[C@@H]1CCCN1C(=O)COC(=O)c2ccccc2,-2.0841
"propanamide, 3-(benzoyloxy)-n,n-dimethyl-",CN(C)C(=O)CCOC(=O)c1ccccc1,-1.0994
"butanamide, 4-(benzoyloxy)-n,n-dimethyl-",CN(C)C(=O)CCCOC(=O)c1ccccc1,-1.2286
"acetamide, n-acetyl-2-(benzoyloxy)-n-methyl-",CN(C(C)=O)C(=O)COC(=O)c1ccccc1,-2.8664
"acetamide, 2-(benzoyloxy)-n-(1-methylethyl)-",CC(C)NC(=O)COC(=O)c1ccccc1,-2.7321
"acetamide, 2-(benzoyloxy)-n-butyl-",CCCCNC(=O)COC(=O)c1ccccc1,-2.7588
"acetamide, 2-(benzoyloxy)-n-hexyl-",CCCCCCNC(=O)COC(=O)c1ccccc1,-3.902
"propanamide, 2-[[(benzoyloxy)acetyl]amino]-",CC(NC(=O)COC(=O)c1ccccc1)C(N)=O,-2.7172
bromuconazole,Clc1ccc(c(Cl)c1)C2(CC(Br)CO2)Cn3cncn3,-3.8775
novaluron,FC(OC(F)(F)F)C(F)(F)Oc1ccc(NC(=O)NC(=O)c2c(F)cccc2F)cc1Cl,-6.9675
sec-butyl ethylamine,CCNC(C)CC,-0.21
"dl-lysine, n2-benzoyl-",NCCCCC(NC(=O)c1ccccc1)C(O)=O,-2.2845
fluthiacet-methyl,COC(=O)CSc1cc(N=C2SC(=O)N3CCCCN23)c(F)cc1Cl,-5.6768
l-altraric acid,O[C@@H]([C@@H](O)[C@@H](O)C(O)=O)[C@@H](O)C(O)=O,0.1999
thiazopyr,COC(=O)c1c(CC(C)C)c(C2=NCCS2)c(nc1C(F)F)C(F)(F)F,-5.2002
Spiroxamine,CCCN(CC)CC1COC2(CCC(CC2)C(C)(C)C)O1,-2.8014
"benzeneethanol, 4-hydroxy-3-nitro-",OCCc1ccc(O)c(c1)[N+]([O-])=O,-1.1556
"1(3h)-isobenzofuranone, 6-amino-3-methyl-",CC1OC(=O)c2cc(N)ccc12,-1.7891
transfluthrin,CC1(C)[C@H](C=C(Cl)Cl)[C@H]1C(=O)OCc2c(F)c(F)cc(F)c2F,-6.8137
"2-thiophenesulfonamide, 4-(4-methoxybenzoyl)-",COc1ccc(cc1)C(=O)c2csc(c2)[S](N)(=O)=O,-4.4733
"2-thiophenesulfonamide, 4-(4-hydroxybenzoyl)-",N[S](=O)(=O)c1scc(c1)C(=O)c2ccc(O)cc2,-2.8612
"2-furansulfonamide, 4-(4-methoxybenzoyl)-",COc1ccc(cc1)C(=O)c2coc(c2)[S](N)(=O)=O,-4.1481
"2-thiophenesulfonamide, 4-(4-methylbenzoyl)-",Cc1ccc(cc1)C(=O)c2csc(c2)[S](N)(=O)=O,-4.4492
flupoxam,NC(=O)c1nn(c2ccc(Cl)c(COCC(F)(F)C(F)(F)F)c2)c(n1)c3ccccc3,-5.6635
tebufenpyrad,CCc1nn(C)c(C(=O)NCc2ccc(cc2)C(C)(C)C)c1Cl,-5.1086
quizalofop-p-tefuryl,CC(Oc1ccc(Oc2cnc3cc(Cl)ccc3n2)cc1)C(=O)OCC4CCCO4,-5.0303
fipronil,Nc1n(nc(C#N)c1[S](=O)C(F)(F)F)c2c(Cl)cc(cc2Cl)C(F)(F)F,-5.3619
azimsulfuron,COc1cc(OC)nc(NC(=O)N[S](=O)(=O)c2n(C)ncc2c3nnn(C)n3)n1,-2.6066
nitenpyram,CCN(Cc1ccc(Cl)nc1)\C(NC)=C\[N+]([O-])=O,0.4918
fenazaquin,CC(C)(C)c1ccc(CCOc2ncnc3ccccc23)cc1,-6.1439
"3-p-anisidino-propane-1,2-diol",COc1ccc(NCC(O)CO)cc1,-0.295
furilazole,CC1(C)OC(CN1C(=O)C(Cl)Cl)c2occc2,-3.1498
Cyhalofop-butyl,CCCCOC(=O)C(C)Oc1ccc(Oc2ccc(cc2F)C#N)cc1,-5.707999999999999
imazosulfuron,COc1cc(OC)nc(NC(=O)N[S](=O)(=O)c2n3ccccc3nc2Cl)n1,-4.7886
"l-asparagine, n2-(chloroacetyl)-",NC(=O)C[C@H](NC(=O)CCl)C(O)=O,-0.3193
rimsulfuron,CC[S](=O)(=O)c1cccnc1[S](=O)(=O)NC(=O)Nc2nc(OC)cc(OC)n2,-4.6349
pymetrozine,CC1=NNC(=O)N(C1)\N=C\c2cccnc2,-2.8745
"hexanal, 5-hydroxy-, (r)-",C[C@@H](O)CCCC=O,-0.4629999999999999
"phthalic acid, 3,4-dimethoxy-, 2-ethyl ester",CCOC(=O)c1ccc(OC)c(OC)c1C([O-])=O,-2.253
"quinoline, 5,7-dichloro-4-(4-fluorophenoxy)-",Fc1ccc(Oc2ccnc3cc(Cl)cc(Cl)c23)cc1,-6.4243
metconazole,CC1(C)CCC(Cc2ccc(Cl)cc2)C1(O)Cn3cncn3,-4.3288
ipconazole,CC(C)C1CCC(Cc2ccc(Cl)cc2)C1(O)Cn3cncn3,-4.6828
cafenstrole,CCN(CC)C(=O)n1cnc(n1)[S](=O)(=O)c2c(C)cc(C)cc2C,-5.1467
"2-butenamide, n-(4-hydroxyphenyl)-",CC=CC(=O)Nc1ccc(O)cc1,-2.6464
"butanamide, n-(aminocarbonyl)-2-cyano-2-ethyl-",CCC(CC)(C#N)C(=O)NC(N)=O,-1.564
ethoxysulfuron,CCOc1ccccc1O[S](=O)(=O)NC(=O)Nc2nc(OC)cc(OC)n2,-4.1853
carfentrazone-ethyl,CCOC(=O)C(Cl)Cc1cc(N2N=C(C)N(C(F)F)C2=O)c(F)cc1Cl,-4.2727
clofencet,CCC1=C(C(O)=O)C(=O)C=NN1c2ccc(Cl)cc2,0.4
"4-Chlorophenyl-2-(1H-1,2,4-triazol-yl)cycloheptanol",OC1(CCCCCC1n2cncn2)c3ccc(Cl)cc3,-3.3681
pyraflufen-ethyl,CCOC(=O)COc1cc(c(F)cc1Cl)c2nn(C)c(OC(F)F)c2Cl,-5.6161
thifluzamide,Cc1sc(C(=O)Nc2c(Br)cc(OC(F)(F)F)cc2Br)c(n1)C(F)(F)F,-5.5186
fludioxonil,FC1(F)Oc2cccc(c2O1)c3c[nH]cc3C#N,-5.1395
famoxadone,CC1(OC(=O)N(Nc2ccccc2)C1=O)c3ccc(Oc4ccccc4)cc3,-6.8573
azoxystrobin,CO\C=C(C(=O)OC)/c1ccccc1Oc2cc(Oc3ccccc3C#N)ncn2,-4.8276
Metominostrobin,CNC(=O)C(=N/OC)\c1ccccc1Oc2ccccc2,-3.3466
Acibenzolar-s-methyl,CSC(=O)c1cccc2nnsc12,-4.4363
acetamiprid,CN(Cc1ccc(Cl)nc1)C(C)=NC#N,-1.7244
mefenpyr-diethyl,CCOC(=O)C1=NN(c2ccc(Cl)cc2Cl)C(C)(C1)C(=O)OCC,-4.271
"benzenesulfonamide, 4-[(4-hydroxybutyl)thio]-",N[S](=O)(=O)c1ccc(SCCCCO)cc1,-2.5141
"benzenesulfonamide, 4-(3-hydroxypropyl)-",N[S](=O)(=O)c1ccc(CCCO)cc1,-1.032
"benzenesulfonamide, 4-(4-hydroxybutyl)-",N[S](=O)(=O)c1ccc(CCCCO)cc1,-1.1931
"benzenesulfonamide, 4-(5-hydroxypentyl)-",N[S](=O)(=O)c1ccc(CCCCCO)cc1,-1.9712
triflusulfuron-methyl,CN(C)c1nc(NC(=O)N[S](=O)(=O)c2c(C)cccc2C(O)=O)nc(OCC(F)(F)F)n1,-5.6798
pyriminobac-methyl,CO\N=C(/C)c1cccc(Oc2nc(OC)cc(OC)n2)c1C(=O)OC,-3.6037
fluquinconazole,Fc1ccc2N=C(n3cncn3)N(C(=O)c2c1)c4ccc(Cl)cc4Cl,-5.5754
cyclosulfamuron,COc1cc(OC)nc(NC(=O)N[S](=O)(=O)Nc2ccccc2C(=O)C3CC3)n1,-6.3943
imidacloprid,[O-][N+](=O)NC1=NCCN1Cc2ccc(Cl)nc2,-2.6223
metosulam,COc1cc(OC)n2nc(nc2n1)[S](=O)(=O)Nc3c(Cl)ccc(C)c3Cl,-3.3204
isoxaflutole,C[S](=O)(=O)c1cc(ccc1C(=O)c2cnoc2C3CC3)C(F)(F)F,-4.7631
sulfosulfuron,CC[S](=O)(=O)c1nc2ccccn2c1[S](=O)(=O)NC(=O)Nc3nc(OC)cc(OC)n3,-4.4191
fluthiamide,CC(C)N(C(=O)COc1sc(nn1)C(F)(F)F)c2ccc(F)cc2,-3.8121
Kresoxim-methy,CO\N=C(C(=O)OC)/c1ccccc1COc2ccccc2C,-5.195
oxasulfuron,Cc1cc(C)nc(NC(=O)N[S](=O)(=O)c2ccccc2C(=O)OC3COC3)n1,-3.893
methyl (1-(4-methyl)phenylsulfonyl) cyclopropane,COC(=O)C1(CC1)[S](=O)(=O)c2ccc(C)cc2,-2.8803
ethyl (1-(4-methyl)phenylsulfonyl) cyclopropane,CCOC(=O)C1(CC1)[S](=O)(=O)c2ccc(C)cc2,-3.0104
isopropyl (1-(4-methyl)phenylsulfonyl) cycloprop,CC(C)OC(=O)C1(CC1)[S](=O)(=O)c2ccc(C)cc2,-3.2307
methyl (1-(4-chloro)phenylsulfonyl) cyclopropane,COC(=O)C1(CC1)[S](=O)(=O)c2ccc(Cl)cc2,-3.3086
isopropyl (1-(4-chloro)phenylsulfonyl) cycloprop,CC(C)OC(=O)C1(CC1)[S](=O)(=O)c2ccc(Cl)cc2,-3.5401
tert-butyl (1-(4-chloro)phenylsulfonyl) cyclopro,CC(C)(C)OC(=O)C1(CC1)[S](=O)(=O)c2ccc(Cl)cc2,-4.1206
methyl (1-(4-bromo)phenylsulfonyl) cyclopropane,COC(=O)C1(CC1)[S](=O)(=O)c2ccc(Br)cc2,-3.6703
methyl (1-(4-nitro)phenylsulfonyl) cyclopropane,COC(=O)C1(CC1)[S](=O)(=O)c2ccc(cc2)[N+]([O-])=O,-3.3797
isopropyl (1-(4-nitro)phenylsulfonyl) cyclopropa,CC(C)OC(=O)C1(CC1)[S](=O)(=O)c2ccc(cc2)[N+]([O-])=O,-4.2605
trovafloxacin,NC1[C@H]2CN(C[C@@H]12)c3nc4N(C=C(C(O)=O)C(=O)c4cc3F)c5ccc(F)cc5F,-4.5296
cloransulam,CCOc1nc(F)cc2nc(nn12)[S](=O)(=O)Nc3c(Cl)cccc3C(=O)OC,-4.4292
Bifenazate,COc1ccc(cc1NNC(=O)OC(C)C)c2ccccc2,-4.9025
etoxazole,CCOc1cc(ccc1C2COC(=N2)c3c(F)cccc3F)C(C)(C)C,-6.6782
fentrazamide,CCN(C1CCCCC1)C(=O)N2N=NN(C2=O)c3ccccc3Cl,-5.1821
isopropyl (1-(4-nitro)phenylsulfonyl) cyclobutan,CC(C)OC(=O)C1(CCC1)[S](=O)(=O)c2ccc(cc2)[N+]([O-])=O,-3.7599
isopropyl (1-(4-nitro)phenylsulfonyl) cyclohexan,CC(C)OC(=O)C1(CCCCC1)[S](=O)(=O)c2ccc(cc2)[N+]([O-])=O,-4.8796
isopropyl (1-(4-nitro)phenylsulfonyl) cyclohepta,CC(C)OC(=O)C1(CCCCCC1)[S](=O)(=O)c2ccc(cc2)[N+]([O-])=O,-5.0706
me (1-(4-bromo)phenylsulfonyl) cyclobutane carbo,COC(=O)C1(CCC1)[S](=O)(=O)c2ccc(Br)cc2,-3.55
me (1-(4-bromo)phenylsulfonyl) cyclopentane carb,COC(=O)C1(CCCC1)[S](=O)(=O)c2ccc(Br)cc2,-4.0104
me (1-(4-bromo)phenylsulfonyl) cyclohexane carbo,COC(=O)C1(CCCCC1)[S](=O)(=O)c2ccc(Br)cc2,-4.4786
me (1-(4-chloro)phenylsulfonyl) cyclobutane carb,COC(=O)C1(CCC1)[S](=O)(=O)c2ccc(Cl)cc2,-2.9996
isopropyl (1-(4-chloro)phenylsulfonyl) cyclopent,CC(C)OC(=O)C1(CCCC1)[S](=O)(=O)c2ccc(Cl)cc2,-4.6498
ethyl (1-(4-methyl)phenylsulfonyl) cyclobutane c,CCOC(=O)C1(CCC1)[S](=O)(=O)c2ccc(C)cc2,-2.9594
methyl (1-phenylsulfonyl) cyclobutane carboxylat,COC(=O)C1(CCC1)[S](=O)(=O)c2ccccc2,-3.0005
methyl (1-phenylsulfonyl) cyclopentane carboxyla,COC(=O)C1(CCCC1)[S](=O)(=O)c2ccccc2,-2.5501
Brofluthrinate,CC(C)C(C(=O)OC(C#N)c1cccc(Oc2ccc(Br)cc2)c1)c3ccc(OC(F)F)cc3,-8.1731
Methoxyfenozide,COc1cccc(C(=O)NN(C(=O)c2cc(C)cc(C)c2)C(C)(C)C)c1C,-5.5664
isopropazol,CC(C)OC(=O)c1cc(c(F)cc1Cl)c2nn(C)c(c2Br)C(F)(F)F,-6.9227
ethyl 2-formamido-(furan-3-yl)acrylate,CCOC(=O)C(NC=O)=Cc1cocc1,-2.7477
"2,3-dimethylbutane",CC(C)C(C)C,-3.5832
3-methylpentane,CCC(C)CC,-3.6826
methylcyclopentane,CC1CCCC1,-3.3019
octane,CCCCCCCC,-5.2382
n-heptane,CCCCCCC,-4.4694
cyclooctane,C1CCCCCCC1,-4.1524
"2,2-dimethylpropane",CC(C)(C)C,-3.3371
benzo(a)pyrene,c1ccc2c(c1)cc3ccc4cccc5ccc2c3c45,-8.1924
"dibenz(a,h)anthracene",c1ccc2c(c1)ccc3cc4c(ccc5ccccc45)cc23,-8.6679
3-methylcholanthrene,Cc1ccc2cc3c(ccc4ccccc34)c5CCc1c25,-7.9663
benz(a)anthracene,c1ccc2cc3c(ccc4ccccc34)cc2c1,-7.3854
phenanthrene,c1ccc2c(c1)ccc3ccccc23,-5.1903
dibenzothiophene,s1c2ccccc2c3ccccc13,-5.0981
benzo[ghi]perylene,c1cc2ccc3ccc4ccc5cccc6c(c1)c2c3c4c56,-9.0265
acenaphthylene,c1cc2cccc3C=Cc(c1)c23,-3.9756
"dibenzo[a,c]anthracene",c1ccc2cc3c4ccccc4c5ccccc5c3cc2c1,-8.2405
triphenylene,c1ccc2c(c1)c3ccccc3c4ccccc24,-6.7447
chrysene,c1ccc2c(c1)ccc3c4ccccc4ccc23,-8.0575
"dibenzo[a,j]anthracene",c1ccc2c(c1)ccc3cc4ccc5ccccc5c4cc23,-8.4318
11h-benzo(b)fluorene,C1c2ccccc2c3cc4ccccc4cc13,-7.733
9-nitroanthracene,[O-][N+](=O)c1c2ccccc2cc3ccccc13,-6.2918
2-methylanthracene,Cc1ccc2cc3ccccc3cc2c1,-6.9555
"9,10-dimethylanthracene",Cc1c2ccccc2c(C)c3ccccc13,-6.5663
1-methylphenanthrene,Cc1cccc2c1ccc3ccccc23,-5.8541
1-methylfluorene,Cc1cccc2c1Cc3ccccc23,-5.2184
2-methylphenanthrene,Cc1ccc2c(ccc3ccccc23)c1,-5.8367
ethylanthracene,CCc1ccc2cc3ccccc3cc2c1,-6.8863
t-butylbenzene,CC(C)(C)c1ccccc1,-3.658
cumene,CC(C)c1ccccc1,-3.2924
bibenzyl,C(Cc1ccccc1)c2ccccc2,-4.6272
n-propylbenzene,CCCc1ccccc1,-3.3622
n-butylbenzene,CCCCc1ccccc1,-4.0559
o-diethylbenzene,CCc1ccccc1CC,-3.2759
m-diethylbenzene,CCc1cccc(CC)c1,-3.7476
"1,2,3-trimethylbenzene",Cc1cccc(C)c1C,-3.2037
ethynyl benzene,C#Cc1ccccc1,-2.3502
pentylbenzene,CCCCCc1ccccc1,-4.6434
isobutylbenzene,CC(C)Cc1ccccc1,-4.1235
1-ethyl-2-methylbenzene,CCc1ccccc1C,-3.2072
p-tolyltoluene,Cc1ccc(cc1)c2ccc(C)cc2,-6.0177
p-ethyltoluene,CCc1ccc(C)cc1,-3.1026
pentamethylbenzene,Cc1cc(C)c(C)c(C)c1C,-3.9807
n-hexylbenzene,CCCCCCc1ccccc1,-5.2551
octylbenzene,CCCCCCCCc1ccccc1,-6.46
pentachloronitrobenzene,[O-][N+](=O)c1c(Cl)c(Cl)c(Cl)c(Cl)c1Cl,-5.8269
"2,4,5-trichloronitrobenzene",[O-][N+](=O)c1cc(Cl)c(Cl)cc1Cl,-3.8866
2-chlorotoluene,Cc1ccccc1Cl,-2.5295
"1,4-dibromobenzene",Brc1ccc(Br)cc1,-4.0717
p-bromotoluene,Cc1ccc(Br)cc1,-3.1917
p-bromochlorobenzene,Clc1ccc(Br)cc1,-3.6298
m-dibromobenzene,Brc1cccc(Br)c1,-3.5435
m-bromochlorobenzene,Clc1cccc(Br)c1,-3.2102
"2,3,5,6-tetrachloronitrobenzene",[O-][N+](=O)c1c(Cl)c(Cl)cc(Cl)c1Cl,-5.0963
p-fluorobenzyl chloride,Fc1ccc(CCl)cc1,-2.5442
p-difluorobenzene,Fc1ccc(F)cc1,-1.9709
o-dibromobenzene,Brc1ccccc1Br,-3.5
m-bromotoluene,Cc1cccc(Br)c1,-3.523
m-chlorofluorobenzene,Fc1cccc(Cl)c1,-2.3457
"1,2,3,4-tetrachlorobenzene",Clc1ccc(Cl)c(Cl)c1Cl,-4.5619
"2,3,4,5-tetrachloronitrobenzene",[O-][N+](=O)c1cc(Cl)c(Cl)c(Cl)c1Cl,-4.5531
m-bromofluorobenzene,Fc1cccc(Br)c1,-2.6656
"2,3,4-trichloronitrobenzene",[O-][N+](=O)c1ccc(Cl)c(Cl)c1Cl,-3.94
"2,4,6-trichloronitrobenzene",[O-][N+](=O)c1c(Cl)cc(Cl)cc1Cl,-4.5591
trimethylamine,CN(C)C,1.1777
"n,n-diethylaniline",CCN(CC)c1ccccc1,-3.0278
n-methylaniline,CNc1ccccc1,-1.2803
diphenylamine,N(c1ccccc1)c2ccccc2,-3.5042
p-anisaldehyde,COc1ccc(C=O)cc1,-1.5016
"3,5-dichloroaniline",Nc1cc(Cl)cc(Cl)c1,-2.3153
pentachlorophenol,Oc1c(Cl)c(Cl)c(Cl)c(Cl)c1Cl,-4.2793
o-ethylphenol,CCc1ccccc1O,-1.3594
2-methoxyphenol,COc1ccccc1O,-0.8221
"2,6-dimethoxyphenol",COc1cccc(OC)c1O,-0.9525
p-phenylphenol,Oc1ccc(cc1)c2ccccc2,-3.4812
"2,4,5-trichlorophenol",Oc1cc(Cl)c(Cl)cc1Cl,-2.2163
"2,4-dimethylphenol",Cc1ccc(O)c(C)c1,-1.1909999999999998
p-bromophenol,Oc1ccc(Br)cc1,-1.092
p-methoxyphenol,COc1ccc(O)cc1,-0.4919
"2,4,6-trimethylphenol",Cc1cc(C)c(O)c(C)c1,-2.055
"2,3-dichlorophenol",Oc1cccc(Cl)c1Cl,-1.6559
m-bromophenol,Oc1cccc(Br)c1,-0.8764
"3,5-dichlorophenol",Oc1cc(Cl)cc(Cl)c1,-1.5590000000000002
"2,4-dibromophenol",Oc1ccc(Br)cc1Br,-2.1225
benzilic acid,OC(=O)C(O)(c1ccccc1)c2ccccc2,-2.2092
gibberellic acid,CC12[C@@H](O)C=C[C@@]3(OC1=O)[C@@H]4CC[C@]5(O)C[C@]4(CC5=C)[C@H]([C@H]23)C(O)=O,-1.8406
chloroacetic acid,OC(=O)CCl,0.9277
isobutyricacid,CC(C)C(O)=O,0.2777
a-bromobutyric acid,CCC(Br)C(O)=O,-0.3776
naphthaleneacetic acid,OC(=O)Cc1cccc2ccccc12,-2.6468
indole-3-acetic acid,OC(=O)Cc1c[nH]c2ccccc12,-2.0674
2-ethylbutyric acid,CCC(CC)C(O)=O,-0.8098
2-methyl-4-chlorophenoxyacetic acid,Cc1cc(Cl)ccc1OCC(O)=O,-2.503
pimelic acid,OC(=O)CCCCCC(O)=O,-0.5056
undecanoic acid,CCCCCCCCCCC(O)=O,-3.5525
phenoxyacetic acid,OC(=O)COc1ccccc1,-1.1031
p-chlorophenoxyacetic acid,OC(=O)COc1ccc(Cl)cc1,-2.29
trans-cinnamic acid,OC(=O)\C=C\c1ccccc1,-2.4335
2-ethylhexanoic acid,CCCCC(CC)C(O)=O,-1.858
tetradecanoic acid,CCCCCCCCCCCCCC(O)=O,-5.3293
"3,4-dichlorophenoxyacetic acid",OC(=O)COc1ccc(Cl)c(Cl)c1,-2.6846
o-chlorophenoxyacetic acid,OC(=O)COc1ccccc1Cl,-2.1637
"cinnamic acid, p-methoxy-",COc1ccc(\C=C\C(O)=O)cc1,-2.3984
"3,5-dichlorobenzoic acid",OC(=O)c1cc(Cl)cc(Cl)c1,-3.1137
"3,4-dichlorobenzoic acid",OC(=O)c1ccc(Cl)c(Cl)c1,-3.495
1-napthoic acid,OC(=O)c1cccc2ccccc12,-3.3015
thiophene-3-carboxylic acid,OC(=O)c1cscc1,-1.4743
2-furoic acid,OC(=O)c1occc1,-0.4802
2-iodobenzoic acid,OC(=O)c1ccccc1I,-2.7308
2-naphthoic acid,OC(=O)c1ccc2ccccc2c1,-3.5639
m-toluic acid,Cc1cccc(c1)C(O)=O,-2.1428
p-methoxybenzoic acid,COc1ccc(cc1)C(O)=O,-2.458
o-toluic acid,Cc1ccccc1C(O)=O,-2.0621
m-fluorobenzoic acid,OC(=O)c1cccc(F)c1,-1.9704
p-fluorobenzoic acid,OC(=O)c1ccc(F)cc1,-2.0673
m-chlorobenzoic acid,OC(=O)c1cccc(Cl)c1,-2.5415
cumic acid,CC(C)c1ccc(cc1)C(O)=O,-3.0364
m-bromobenzoic acid,OC(=O)c1cccc(Br)c1,-2.699
p-bromobenzoic acid,OC(=O)c1ccc(Br)cc1,-3.5251
3-iodobenzoic acid,OC(=O)c1cccc(I)c1,-3.2706
4-iodobenzoic acid,OC(=O)c1ccc(I)cc1,-3.9631
"2,2-dimethyl-1-propanol",CC(C)(C)CO,-0.4012
2-butanol,CCC(C)O,0.3877
benzhydrol,OC(c1ccccc1)c2ccccc2,-2.5494
benzyl alcohol,OCc1ccccc1,-0.4319
cyclohexanol,OC1CCCCC1,-0.3774
1-heptanol,CCCCCCCO,-1.8425
3-phenylpropanol,OCCCc1ccccc1,-1.3798
2-octanol,CCCCCCC(C)O,-2.0655
2-heptanol,CCCCCC(C)O,-1.5507
3-pentanol,CCC(O)CC,-0.2334
p-methyl benzyl alcohol,Cc1ccc(CO)cc1,-1.1999
4-heptanol,CCCC(O)CCC,-1.3931
3-heptanol,CCCCC(O)CC,-1.4631
4-methylcyclohexanol,CC1CCC(O)CC1,-0.8815
3-hexanol,CCCC(O)CC,-0.8025
2-hexanol,CCCCC(C)O,-0.8726
"2,6-dichlorobenzyl alcohol",OCc1c(Cl)cccc1Cl,-2.1019
methyl bromide,CBr,-0.7956
bromoethane,CCBr,-1.086
iodoethane,CCI,-1.6009
methylene iodide,ICI,-2.3345
2-chloropropane,CC(C)Cl,-1.4037
"1,1-dichloroethane",CC(Cl)Cl,-1.2913
dichlorofluoromethane,FC(Cl)Cl,-0.7383
trifluoromethane,FC(F)F,-1.2334
trichlorofluoromethane,FC(Cl)(Cl)Cl,-2.0965
pentachloroethane,ClC(Cl)C(Cl)(Cl)Cl,-2.6248
"1,1,2-trichlorotrifluoroethane",FC(F)(Cl)C(F)(Cl)Cl,-3.0423
"1,1,2,2-tetrachloroethane",ClC(Cl)C(Cl)Cl,-1.7536
bromocyclohexane,BrC1CCCCC1,-2.2943
1-bromopentane,CCCCCBr,-3.0753
1-bromohexane,CCCCCCBr,-3.8078
"1,3-dichloropropane",ClCCCCl,-1.6137
1-bromoheptane,CCCCCCCBr,-4.431
1-chloroheptane,CCCCCCCCl,-3.9957
1-iodoheptane,CCCCCCCI,-4.8102
fufural,O=Cc1occc1,-0.0962
piperonal,O=Cc1ccc2OCOc2c1,-1.6324
o-nitrobenzaldehyde,[O-][N+](=O)c1ccccc1C=O,-1.8138
p-nitrobenzaldehyde,[O-][N+](=O)c1ccc(C=O)cc1,-1.8101
ethyl methacrylate,CCOC(=O)C(C)=C,-1.3251
"methacrylic acid, i-butyl ester",CC(C)COC(=O)C(C)=C,-2.039
"n-methylcarbamic acid, et ester",CCOC(=O)NC,0.8255
diethyl succinate,CCOC(=O)CCC(=O)OCC,-0.96
butyl benzoate,CCCCOC(=O)c1ccccc1,-3.4801
benzyl acetate,CC(=O)OCc1ccccc1,-1.6853
acetoacetic ester,CCOC(=O)CC(C)=O,-0.073
methyl propionate,CCC(=O)OC,-0.1498
di-i-propyl phthalate,CC(C)OC(=O)c1ccccc1C(=O)OC(C)C,-2.8773
"ethanol, 2-bromo-, acetate",CC(=O)OCCBr,-0.6737
3-pentanone,CCC(=O)CC,-0.253
5-methyl-2-hexanone,CC(C)CCC(C)=O,-1.3252
3-methyl-2-butanone,CC(C)C(C)=O,-0.1513
2-decanone,CCCCCCCCC(C)=O,-3.3085
"b,b,b-trichloro-t-butanol",CC(C)(O)C(Cl)(Cl)Cl,-1.346
"2,2,2-trichloroethanol",OCC(Cl)(Cl)Cl,-0.2537
benzonitrile,N#Cc1ccccc1,-1.7123
propionitrile,CCC#N,0.2718
acrylonitrile,C=CC#N,0.1474
butyronitrile,CCCC#N,-0.321
"2,6-dichlorobenzonitrile",Clc1cccc(Cl)c1C#N,-3.9803
1-octene,CCCCCCC=C,-4.4373
isononene,CCCCCCCC=C,-5.052
cycloheptatriene,C1C=CC=CC=C1,-2.1721
trans-2-butene,C\C=C/C,-1.9302
"1,4-pentadiene",C=CCC=C,-2.0866
1-hexene,CCCCC=C,-3.2261
"1,5-hexadiene",C=CCCC=C,-2.6867
1-heptene,CCCCCC=C,-3.732
"1,4-cyclohexadiene",C1C=CCC=C1,-2.0587
3-methylindole,Cc1c[nH]c2ccccc12,-2.4206
1h-benzotriazole,[nH]1nc2ccccc2n1,-0.7794
benzo(b)thiophene,s1ccc2ccccc12,-3.0138
pyrrole,[nH]1cccc1,-0.1734
indazole,[nH]1ncc2ccccc12,-2.1554
benzoxazole,o1cnc2ccccc12,-1.1548
indane,C1Cc2ccccc2C1,-3.0351
2-methylfuran,Cc1occc1,-1.4372
2-(methoxymethyl)-5-no2 furan,COCc1oc(cc1)[N+]([O-])=O,-1.1548
2-methylbenaimidazole,Cc1[nH]c2ccccc2n1,-1.9598
2-methylthiobenzothiazole,CSc1sc2ccccc2n1,-3.1614
3-methylthiophene,Cc1cscc1,-2.3899
2-ethylthiophene,CCc1sccc1,-2.5846
ethylenethiourea,S=C1NCCN1,-0.7083
"1,1-difluoroethene",FC(F)=C,-0.7061
hexachlorocyclopentadiene,ClC1=C(Cl)C(Cl)(Cl)C(=C1Cl)Cl,-5.1805
hexachlorobutadiene,ClC(Cl)=C(Cl)C(Cl)=C(Cl)Cl,-4.9111
3-bromo-1-propene,BrCC=C,-1.4995
4-bromo-1-butene,BrCCC=C,-2.2473
1-methylnaphthalene,Cc1cccc2ccccc12,-3.7413
1-chloronaphthalene,Clc1cccc2ccccc12,-3.9706
2-methylnaphthalene,Cc1ccc2ccccc2c1,-3.762
2-chloronaphthalene,Clc1ccc2ccccc2c1,-4.143
1-naphthylamine,Nc1cccc2ccccc12,-1.9255
2-naphthol,Oc1ccc2ccccc2c1,-2.2809
1-isothiocyanonaphthalene,S=C=Nc1cccc2ccccc12,-4.6022
"1,4-dimethylnaphthalene",Cc1ccc(C)c2ccccc12,-4.1369
"1,3-dimethylnapthalene",Cc1cc(C)c2ccccc2c1,-4.2907
"2,6-dimethylnaphthalene",Cc1ccc2cc(C)ccc2c1,-4.8927
"2,3,6-trimethylnaphthalene",Cc1ccc2cc(C)c(C)cc2c1,-5.0007
2-ethylnaphthalene,CCc1ccc2ccccc2c1,-4.2901
1-ethylnaphthalene,CCc1cccc2ccccc12,-4.1644
1-naphthalenemethanol,OCc1cccc2ccccc12,-1.7444
dibenzo-p-dioxin,O1c2ccccc2Oc3ccccc13,-5.3106
1-chlorodibenzo-p-dioxin,Clc1cccc2Oc3ccccc3Oc12,-5.7196
2-chlorodibenzo-p-dioxin,Clc1ccc2Oc3ccccc3Oc2c1,-5.8359
2-nitrotoluene,Cc1ccccc1[N+]([O-])=O,-2.3243
2-nitroanisole,COc1ccccc1[N+]([O-])=O,-1.9572
"1,3,5-trinitrobenzene",[O-][N+](=O)c1cc(cc(c1)[N+]([O-])=O)[N+]([O-])=O,-2.8846
"1,3-dinitrobenzene",[O-][N+](=O)c1cccc(c1)[N+]([O-])=O,-2.4989
p-nitroanisole,COc1ccc(cc1)[N+]([O-])=O,-2.4142
p-dinitrobenzene,[O-][N+](=O)c1ccc(cc1)[N+]([O-])=O,-3.3867
"2,4,6-trinitrotoluene",Cc1c(cc(cc1[N+]([O-])=O)[N+]([O-])=O)[N+]([O-])=O,-3.2423
o-dinitrobenzene,[O-][N+](=O)c1ccccc1[N+]([O-])=O,-3.1017
m-nitroanisole,COc1cccc(c1)[N+]([O-])=O,-2.4861
"1,3-dino2 2-methyl benzene",Cc1c(cccc1[N+]([O-])=O)[N+]([O-])=O,-3.0003
"1,2-dino2 4-methyl benzene",Cc1ccc(c(c1)[N+]([O-])=O)[N+]([O-])=O,-3.2604
o-ethyl carbamate (urethane),CCOC(N)=O,0.7314
acrylamide,NC(=O)C=C,0.9544
butyramide,CCCC(N)=O,0.2721
"glycerol 1,3-dinitrate",OC(CO[N+]([O-])=O)CO[N+]([O-])=O,-0.366
1-nitrobutane,CCCC[N+]([O-])=O,-1.3506
1-nitropentane,CCCCC[N+]([O-])=O,-1.9548
ethylene glycol dinitrate,[O-][N+](=O)OCCO[N+]([O-])=O,-1.3495
1-pentyne,CCCC#C,-1.6374
diethyl ether,CCOCC,-0.0889
di(n-propyl) ether,CCCOCCC,-1.3192
2-hexyloxyethanol,CCCCCCOCCO,-1.1694
"1,2-dibutyoxyethane",CCCCOCCOCCCC,-1.9402
tetrahydropyran,C1CCOCC1,-0.031
di-n-butyl ether,CCCCOCCCC,-2.6376
ethrane [haloether],FC(F)OC(F)(F)C(F)Cl,-1.5162
isoflurane,FC(F)OC(Cl)C(F)(F)F,-1.6157
n-nitrosodiethylamine,CCN(CC)N=O,0.0161
diphenylnitrosamine,O=NN(c1ccccc1)c2ccccc2,-3.7531