Name,SMILES,Solubility
"2,2',3,4'-tetrachlorobiphenyl",Clc1ccc(c(Cl)c1)c2cccc(Cl)c2Cl,-6.6813
2-methyl-3-hexyne,CCC#CC(C)C,-2.7448
isothioate,CO[P](=S)(OC)SCCSC(C)C,-3.4288
"9-octadecenoic acid, 12-(sulfooxy)-",CCCCCCC(CC=CCCCCCCCC(O)=O)O[S](O)(=O)=O,-0.5781
1-hexadecanol,CCCCCCCCCCCCCCCCO,-6.7697
rovral (iprodione),CC(C)NC(=O)N1CC(=O)N(C1=O)c2cc(Cl)cc(Cl)c2,-4.3757
tiocarbazil,CCC(C)N(C(C)CC)C(=O)SCc1ccccc1,-5.0484
"benzamide, 2-amino-3,5-dichloro-",NC(=O)c1cc(Cl)cc(Cl)c1N,-2.0814
ribavirin,NC(=O)c1ncn(n1)[C@@H]2O[C@H](CO)[C@@H](O)[C@H]2O,-0.2355
labetalol,CC(CCc1ccccc1)NCC(O)c2ccc(O)c(c2)C(N)=O,-3.4482
"benzoic acid, 4-amino-, nonyl ester",CCCCCCCCCOC(=O)c1ccc(N)cc1,-6.0
validamycin,OC[C@H]1C[C@H](N[C@H]2C=C(CO)[C@@H](O)[C@H](O)[C@H]2O)[C@H](O)[C@@H](O)[C@@H]1O[C@@H]3O[C@H](CO)[C@@H](O)[C@H](O)[C@H]3O,0.3032
metoprolol,COCCc1ccc(OCC(O)CNC(C)C)cc1,-1.1992
"benzamide, n-hydroxy-2-iodo-n-phenyl-",ON(c1ccccc1)C(=O)c2ccccc2I,-3.5304
amikacin,NCC[C@H](O)C(=O)N[C@@H]1C[C@H](N)[C@@H](O[C@H]2O[C@H](CN)[C@@H](O)[C@H](O)[C@H]2O)[C@H](O)[C@H]1O[C@H]3O[C@H](CO)[C@@H](O)[C@H](N)[C@H]3O,-0.5004
"dl-phenylalanine, n-(aminocarbonyl)-",NC(=O)N[C@@H](Cc1ccccc1)C([O-])=O,-2.0958
"pyrido[3,2-d]pyrimidin-4(1h)-one",O=C1N=CNc2cccnc12,-2.0656
"2',3,5-trichlorobiphenyl",Clc1cc(Cl)cc(c1)c2ccccc2Cl,-6.2999
"acetamide, 2,2-dichloro-n,n-di-2-propenyl-",ClC(Cl)C(=O)N(CC=C)CC=C,-1.6193
1-chloro-2-nitropropane,C[C@@H](CCl)[N+]([O-])=O,-1.1887
"1,2-bis(2,4,6-tribromophenoxy)ethane",Brc1cc(Br)c(OCCOc2c(Br)cc(Br)cc2Br)c(Br)c1,-6.5363
heptachlorodibenzo-p-dioxin,Clc1cc2Oc3c(Cl)c(Cl)c(Cl)c(Cl)c3Oc2c(Cl)c1Cl,-11.4795
etacelasil,COCCO[Si](CCCl)(OCCOC)OCCOC,-1.1029
perfluidone,Cc1cc(ccc1N[S](=O)(=O)C(F)(F)F)[S](=O)(=O)c2ccccc2,-3.8009
"5-pyrimidinecarboxylic aicd, 1,2,3,4-tetrahydro-",CCOC(=O)C1=CNC(=S)NC1=O,-2.0985
"d-glutamine, n2-l-leucyl-",CC(C)C[C@H](N)C(=O)N[C@H](CCC(N)=O)C(O)=O,-1.5687
biocozamycin,CC(O)(CO)C(O)[C@@]12NC(=O)[C@@](O)(NC1=O)C(=C)CCO2,-0.1971
"acetic acid, (2-bromo-4,6-dimethylphenoxy)-",Cc1cc(C)c(OCC(O)=O)c(Br)c1,-3.1234
etrimfos,CCOc1cc(O[P](=S)(OC)OC)nc(CC)n1,-3.8638
minoxidil,NC1=CC(=NC(=N)N1O)N2CCCCC2,-1.9782
penbutolol,CC(C)(C)NC[C@@H](O)COc1ccccc1C2CCCC2,-1.6195
"2,2',3,4',5',6-pcb",Clc1ccc(Cl)c(c1Cl)c2cc(Cl)c(Cl)cc2Cl,-7.93
"2,2',3,3',4,6'-hexachlorobiphenyl",Clc1ccc(c(Cl)c1Cl)c2c(Cl)ccc(Cl)c2Cl,-7.65
"2,3,3',4,4',5-hexachlorobiphenyl",Clc1ccc(cc1Cl)c2cc(Cl)c(Cl)c(Cl)c2Cl,-7.8306
"2,2',3,3',4,5,6'-heptachlorobiphenyl",Clc1ccc(Cl)c(c1Cl)c2cc(Cl)c(Cl)c(Cl)c2Cl,-8.5901
"2,3',6-trichlorobiphenyl",Clc1cccc(c1)c2c(Cl)cccc2Cl,-6.8245
"8-quinolinol, 2-methyl-5-nitro-",Cc1ccc2c(ccc(O)c2n1)[N+]([O-])=O,-3.9598
"ethane, 1,1-bis(methylsulfonyl)-",CC([S](C)(=O)=O)[S](C)(=O)=O,-1.4188
"alanine, n-(aminocarbonyl)-2-methyl-",CC(C)(NC(N)=O)C(O)=O,-1.1648
"2-propenoic acid, 3-(2-ethoxyphenyl)-, (z)-",CCOc1ccccc1\C=C/C(O)=O,-2.5234
glyphosate isopropylamine salt,CC(C)N.OC(=O)CNC[P](O)(O)=O,0.6629
Diethatyl-ethyl,CCOC(=O)CN(C(=O)CCl)c1c(CC)cccc1CC,-3.4727
propane-2-thiosulfinic acid s-isopropyl ester,CC(C)S[S](=O)C(C)C,-0.823
"2,4-pentanediol, 2-methyl-4-(1-naphthalenyl)-",CC(C)(O)CC(C)(O)c1cccc2ccccc12,-3.2419
"2,8-dichlorodibenzo-p-dioxin",Clc1ccc2Oc3ccc(Cl)cc3Oc2c1,-7.1806
octachlorodibenzofuran,Clc1c(Cl)c(Cl)c2c(oc3c(Cl)c(Cl)c(Cl)c(Cl)c23)c1Cl,-11.5827
3-bromo-2-iodo-acrylic acid,OC(=O)C(I)=CBr,-1.2118
thiofanox,CNC(=O)O\N=C(\CSC)C(C)(C)C,-1.6231
dinocap,C/C=C/C(=O)Oc1c(cc(cc1C(C)(C)CC(C)(C)C)[N+]([O-])=O)[N+]([O-])=O,-4.9595
"2,2',4,4',6-pentachlorobiphenyl",Clc1ccc(c(Cl)c1)c2c(Cl)cc(Cl)cc2Cl,-7.66
cyphenothrin,CC(C)=CC1C(C(=O)OC(C#N)c2cccc(Oc3ccccc3)c2)C1(C)C,-7.5746
fenpropathrin,CC1(C)C(C(=O)OC(C#N)c2cccc(Oc3ccccc3)c2)C1(C)C,-6.0248
"hexanoic acid, 4-ethyl-5-oxo-",CCC(CCC(O)=O)C(C)=O,-0.451
"acetamide, 2-cyano-n-methyl-n- (methylamino)carb",CNC(=O)N(C)C(=O)CC#N,0.1709
"1,1'-biphenyl, 2,3,3',4,4',5,5'-heptachloro-",Clc1cc(cc(Cl)c1Cl)c2cc(Cl)c(Cl)c(Cl)c2Cl,-8.7202
"acetamide, 2-(acetylamino)-n-phenyl-",CC(=O)NCC(=O)Nc1ccccc1,-1.5678
oxadiargyl,CC(C)(C)C1=NN(C(=O)O1)c2cc(OCC#C)c(Cl)cc2Cl,-5.9648
"1h-purine-2,6-dione, 1-ethyl-3,7-dihydro-3,7-dim",CCN1C(=O)N(C)c2ncn(C)c2C1=O,-0.7190000000000001
ethyl 2-formamido-(phenylvinyl)acrylate,CCOC(=O)C(NC=O)=CC=Cc1ccccc1,-3.3483
"tris(1,3-dichloropropyl) phosphate",ClCCC(Cl)O[P](=O)(OC(Cl)CCCl)OC(Cl)CCCl,-3.6344
"1,1'-biphenyl, 2,2',3,3',4,5',6-heptachloro-",Clc1cc(Cl)c(Cl)c(c1)c2c(Cl)cc(Cl)c(Cl)c2Cl,-8.68
"2,2',3,3',4,5',6,6'-octachlorobiphenyl",Clc1cc(Cl)c(c(Cl)c1Cl)c2c(Cl)c(Cl)cc(Cl)c2Cl,-9.1999
pendimethalin,CCC(CC)Nc1c(cc(C)c(C)c1[N+]([O-])=O)[N+]([O-])=O,-5.9721
methoprene,COC(C)(C)CCCC(C)C\C=C\C(C)=C\C(=O)OC(C)C,-5.3459
"2-pteridinamine, n,n-dimethyl-",CN(C)c1ncc2nccnc2n1,0.3586
sparticide,Fc1ccc(cc1)N2C(=O)C(=C(Cl)C2=O)Cl,-4.6442
"4-methoxy-3,3'-dimethylbenzophenone",COc1ccc(cc1C)C(=O)c2cccc(C)c2,-5.0797
"d-mannose, (aminocarbonyl)hydrazone",NC(=O)NN=C[C@@H](O)[C@@H](O)[C@H](O)[C@H](O)CO,-0.53
metamitron,CC1=NN=C(c2ccccc2)C(=O)N1N,-2.0506
"1,1'-biphenyl, 2,3',4',6-tetrachloro-",Clc1ccc(cc1Cl)c2c(Cl)cccc2Cl,-7.0199
"1,1'-biphenyl, 2,2',3,6'-tetrachloro-",Clc1ccc(Cl)c(c1Cl)c2ccccc2Cl,-6.3001
bupirimate,CCCCc1c(C)nc(NCC)nc1O[S](=O)(=O)N(C)C,-4.1579
"acetamide, n-(4-ethoxy-2-methylphenyl)-",CCOc1ccc(NC(C)=O)c(C)c1,-1.839
tricyclazole,Cc1cccc2sc3nncn3c12,-2.0729
"benzaldehyde, 4-hydroxy-5-methoxy-2-methyl-",COc1cc(C=O)c(C)cc1O,-2.7435
nadolol,CC(C)(C)NCC(O)COc1cccc2C[C@@H](O)[C@@H](O)Cc12,-1.5699
isazofos,CCO[P](=S)(OCC)Oc1nn(C(C)C)c(Cl)n1,-3.6577
bifenox,COC(=O)c1cc(Oc2ccc(Cl)cc2Cl)ccc1[N+]([O-])=O,-5.9343
kinoprene,CC(C)CCCC(C)C\C=C\C(C)=C\C(=O)OCC#C,-4.7239
daimuron,Cc1ccc(NC(=O)NC(C)(C)c2ccccc2)cc1,-5.3495
methyldymron,CN(C(=O)NC(C)(C)c1ccccc1)c2ccccc2,-3.3495
"2,2',3,3',4,4',5,6'-octachlorobiphenyl",Clc1cc(Cl)c(c(Cl)c1Cl)c2cc(Cl)c(Cl)c(Cl)c2Cl,-9.42
oxyfluorfen,CCOc1cc(Oc2ccc(cc2Cl)C(F)(F)F)ccc1[N+]([O-])=O,-6.4939
"2-propanol, 1,3-dipropoxy-",CCCOCC(O)COCCC,-0.3431
triadimefon,CC(C)(C)C(=O)C(Oc1ccc(Cl)cc1)n2cncn2,-3.6137
"propanamide, 2-oxo-n-phenyl-",CC(=O)C(=O)Nc1ccccc1,-1.3676
"valeric acid, 5-(benzenesulfonyl-methyl-amino)-",CN(CCCCC(O)=O)[S](=O)(=O)c1ccccc1,-1.5585
"3-pyridinecarboxylic acid, pentyl ester",CCCCCOC(=O)c1cccnc1,-2.3776
"phenol, 4-(2-aminoethyl)-2-nitro-",NCCc1ccc(O)c(c1)[N+]([O-])=O,-1.3399
"2,4(1h,3h)-pteridinedione, 1,6,7-trimethyl-",CN1C(=O)NC(=O)c2nc(C)c(C)nc12,-2.1129
ipt (isoprothiolane),CC(C)OC(=O)C(C(=O)OC(C)C)=C1SCCS1,-3.7306
acifluorfen,OC(=O)c1cc(Oc2ccc(cc2Cl)C(F)(F)F)ccc1[N+]([O-])=O,-3.4791
terfenadine,CC(C)(C)c1ccc(cc1)C(O)CCCN2CCC(CC2)C(O)(c3ccccc3)c4ccccc4,-6.69
azacyclohexadecan-2-one,O=C1CCCCCCCCCCCCCCN1,-2.874
Vx agent,CCO[P](C)(=O)SCCN(C(C)C)C(C)C,-0.95
"hexanamide, n,n'-1,2-ethanediylbis-",CCCCCC(=O)NCCNC(=O)CCCCC,-3.1079
"benzeneacetic acid, .alpha.-(acetyloxy)-, (r)-",CC(=O)O[C@@H](C(O)=O)c1ccccc1,-1.2313
"galatitol, 2,3:4,5-dianhydro-1,6-dideoxy-",CC1OC1C2OC2C,-0.0575
"1h-indole-2,3-dicarboxamide, 1-methyl-",Cn1c2ccccc2c(C(N)=O)c1C(N)=O,-1.8184
"1,3-benzenedicarboxylic acid, 4-sulfo-",OC(=O)c1ccc(c(c1)C(O)=O)[S](O)(=O)=O,0.6087
"1h-pyrazol-5-amine, 3,4-dimethyl-1-phenyl-",Cc1nn(c2ccccc2)c(N)c1C,-1.6704
metolachlor,CCc1cccc(C)c1N(C(C)COC)C(=O)CCl,-2.7287
hexazinone,CN(C)C1=NC(=O)N(C2CCCCC2)C(=O)N1C,-0.8834
buminafos,CCCCNC1(CCCCC1)[P](=O)(OCCCC)OCCCC,-3.3105
buthiobate,CCCCSC(SCc1ccc(cc1)C(C)(C)C)=Nc2cccnc2,-5.5712
"3-(5-Tert-butyl-1,3,4-thiadiazol-2-yl)-1-(2,2-dimethoxyethyl)-1-methylurea",COC(CN(C)C(=O)Nc1sc(nn1)C(C)(C)C)OC,-1.8678
cimetidine,CN=C(NCCSCc1nc[nH]c1C)NC#N,-1.4298
cloethocarb,CNC(=O)Oc1ccccc1OC(CCl)OC,-2.3005
milbemectin a3,C[C@@H]/1CC(=C/CC2C[C@@H](C[C@]3(CC[C@H](C)C(C)O3)O2)OC(=O)[C@@H]4C=C(C)[C@@H](O)[C@H]5OCC(=C\C=C1)/[C@@]45O)/C,-5.7787
milbemectin a4,CCC1O[C@]2(CCC1C)C[C@@H]3C[C@@H](C\C=C(/C)CC(C)/C=C/C=C/4CO[C@@H]5[C@H](O)C(=C[C@@H](C(=O)O3)[C@]45O)C)O2,-4.8772
"2,4-dichlorodiphenyl ether",Clc1ccc(Oc2ccccc2)c(Cl)c1,-4.6304
"2,2',3,4',5,5'-hexachlorobiphenyl",Clc1cc(Cl)c(Cl)c(c1)c2cc(Cl)c(Cl)cc2Cl,-8.5801
pipemidic acid,CCN1C=C(C(O)=O)C(=O)c2cnc(nc12)N3CCNCC3,-2.974
4(3h)-pyrimidone,O=C1CC=NC=N1,0.586
1-(3-Chlorophthalimido)cyclohexanecarboxamide,NC(=O)C1(CCCCC1)N2C(=O)c3cccc(Cl)c3C2=O,-4.0097
cyclohexylmercapto-acetic acid,OC(=O)CSC1CCCCC1,-1.3381
"5-ethyl-5-methyl-2,4-oxazolidinedione",CCC1(C)OC(=O)NC1=O,0.0203
naproanilide,CC(Oc1ccc2ccccc2c1)C(=O)Nc3ccccc3,-5.5894
"2,2',3,4,5-pentachlorobiphenyl",Clc1cccc(c1Cl)c2ccc(Cl)c(Cl)c2Cl,-7.0502
"2,2',3,5,5',6-hexachlorobiphenyl",Clc1ccc(Cl)c(c1)c2c(Cl)c(Cl)cc(Cl)c2Cl,-7.4254
"2,2',3,3',5,6,6'-heptachlorobiphenyl",Clc1ccc(Cl)c(c1Cl)c2c(Cl)c(Cl)cc(Cl)c2Cl,-7.94
"1,1'-biphenyl, 2,2',3,3',4,6,6'-heptachloro-",Clc1ccc(Cl)c(c1Cl)c2c(Cl)cc(Cl)c(Cl)c2Cl,-8.1501
"2,2',3,3',5,5',6-heptachlorobiphenyl",Clc1cc(Cl)c(Cl)c(c1)c2c(Cl)c(Cl)cc(Cl)c2Cl,-8.5901
"1,1'-biphenyl, 2,2',3,3',4,5',6'-heptachloro-",Clc1ccc(c(Cl)c1Cl)c2c(Cl)c(Cl)cc(Cl)c2Cl,-8.42
"2,2',3,3',4,4',6-heptachlorobiphenyl",Clc1ccc(c(Cl)c1Cl)c2c(Cl)cc(Cl)c(Cl)c2Cl,-8.2605
"2,3',4,4',5,5'-hexachlorobiphenyl",Clc1cc(Cl)c(cc1Cl)c2cc(Cl)c(Cl)c(Cl)c2,-8.21
"1,1'-biphenyl, 2,2',3,3',4,5,6,6'-octachloro-",Clc1ccc(Cl)c(c1Cl)c2c(Cl)c(Cl)c(Cl)c(Cl)c2Cl,-9.1
"2,2',3,3',4,5,5'-heptachlorobiphenyl",Clc1cc(Cl)c(Cl)c(c1)c2cc(Cl)c(Cl)c(Cl)c2Cl,-9.1
"2,2',3,3',4,5,5',6'-octachlorobiphenyl",Clc1cc(c(Cl)c(Cl)c1Cl)c2c(Cl)c(Cl)cc(Cl)c2Cl,-9.29
"1,1'-biphenyl, 2,2',3,4,4',5,5',6-octachloro-",Clc1cc(Cl)c(cc1Cl)c2c(Cl)c(Cl)c(Cl)c(Cl)c2Cl,-9.5
"2,3,4,5,6,2',3',5',6'-pcb",Clc1cc(Cl)c(Cl)c(c1Cl)c2c(Cl)c(Cl)c(Cl)c(Cl)c2Cl,-10.4115
"2,2',3,3',4,4',5,6-octachlorobiphenyl",Clc1ccc(c(Cl)c1Cl)c2c(Cl)c(Cl)c(Cl)c(Cl)c2Cl,-9.29
"1,1'-biphenyl, 2,2',3,3',4,4',5,6,6'-nonachloro-",Clc1cc(Cl)c(c(Cl)c1Cl)c2c(Cl)c(Cl)c(Cl)c(Cl)c2Cl,-10.1035
"2,2',3,3',5,6-hexachlorobiphenyl",Clc1cccc(c1Cl)c2c(Cl)c(Cl)cc(Cl)c2Cl,-8.6036
"2,2',3,4,5,5'-hexachlorobiphenyl",Clc1ccc(Cl)c(c1)c2cc(Cl)c(Cl)c(Cl)c2Cl,-7.6794
flamprop-isopropyl,CC(C)OC(=O)C(C)N(C(=O)c1ccccc1)c2ccc(F)c(Cl)c2,-4.3056
flamprop-methyl,COC(=O)C(C)N(C(=O)c1ccccc1)c2ccc(F)c(Cl)c2,-3.982
prosulfocarb,CCCN(CCC)C(=O)SCc1ccccc1,-4.2798
deltamethrin,CC1(C)[C@@H](C=C(Br)Br)[C@H]1C(=O)O[C@H](C#N)c2cccc(Oc3ccccc3)c2,-8.4024
"hydrazinecarboxamide, 1-(2-hydroxyhexyl)-2-[(5-n",CCCCC(O)CN(\N=C/c1oc(cc1)[N+]([O-])=O)C(N)=O,-3.5716
pyrimethanil,Cc1cc(C)nc(Nc2ccccc2)n1,-3.2166
"1,2,3,5-tetrachloronaphthalene",Clc1cccc2c(Cl)c(Cl)c(Cl)cc12,-7.8566
"1,3,5,7-tetrachloronaphthalene",Clc1cc(Cl)c2cc(Cl)cc(Cl)c2c1,-7.8228
ibuproxam,CC(C)Cc1ccc(cc1)C(C)C(=O)NO,-3.044
mefluidide,CC(=O)Nc1cc(N[S](=O)(=O)C(F)(F)F)c(C)cc1C,-3.2365
"24nh2pyrimidine,5(35-meo-4-oetome)benzyl",COCCOc1c(OC)cc(Cc2cnc(N)nc2N)cc1OC,-2.101
"1(3h)-isobenzofuranone, 6-iodo-",Ic1ccc2COC(=O)c2c1,-3.2109
"2-butenoic acid, 2-chloro-, (z)-",C\C=C(/Cl)C(O)=O,0.9189
cefaclor (panoral),N[C@@H](C(=O)N[C@H]1[C@H]2SCC(=C(N2C1=O)C(O)=O)Cl)c3ccccc3,-1.5656
"benzamide, n-(2-amino-1,1-dimethyl-2-oxoethyl)-",CC(C)(NC(=O)c1ccccc1)C(N)=O,-1.6154
"1,2,3-trichloro-4-methoxybenzene",COc1ccc(Cl)c(Cl)c1Cl,-4.2918
empenthrin,CC\C=C(/C)C(OC(=O)C1C(C=C(C)C)C1(C)C)C#C,-6.3931
"pentanamide, n,n'-1,2-ethanediylbis-",CCCCC(=O)NCCNC(=O)CCCC,-1.8145
chlorethoxyfos,CCO[P](=S)(OCC)OC(Cl)C(Cl)(Cl)Cl,-5.5263
"2-pyrrolidinone, 1-nitroso-",O=NN1CCCC1=O,0.0523
"d-alloisoleucine, n-acetyl-",CC[C@H](C)[C@@H](NC(C)=O)C(O)=O,-0.5912
"1,3-benzenediol, 5-(methylthio)-",CSc1cc(O)cc(O)c1,-1.7957
"1,3-benzenediol, 5-(butylthio)-",CCCCSc1cc(O)cc(O)c1,-2.5191
bitertanol,CC(C)(C)C(O)C(Oc1ccc(cc1)c2ccccc2)n3cncn3,-4.8292
"2,2',3,4,6-pentachlorobiphenyl",Clc1ccccc1c2c(Cl)cc(Cl)c(Cl)c2Cl,-7.4346
triadimenol,CC(C)(C)C(O)C(Oc1ccc(Cl)cc1)n2cncn2,-3.3918
propentofylline,CCCn1cnc2N(C)C(=O)N(CCCCC(C)=O)C(=O)c12,-0.9811
praziquantel,O=C1CN(CC2N1CCc3ccccc23)C(=O)C4CCCCC4,-2.8927
dimethipin,CC1=C(C)[S](=O)(=O)CC[S]1(=O)=O,-1.66
"2,2',3,4,5-pentachlorobiphenyl",Clc1ccccc1c2cc(Cl)c(Cl)c(Cl)c2Cl,-7.5226
"phosphoric acid, ethyl dipropyl ester",CCCO[P](=O)(OCC)OCCC,-0.9802
triclopyr,OC(=O)COc1nc(Cl)c(Cl)cc1Cl,-2.7656
buthidazole,CN1CC(O)N(C1=O)c2sc(nn2)C(C)(C)C,-1.8773
pyridate,CCCCCCCCSC(=O)Oc1cc(Cl)nnc1c2ccccc2,-5.4025
"3,4-dichlorodiphenyl ether",Clc1ccc(Oc2ccccc2)cc1Cl,-4.7206
"2,3,4-trichloro-1,1'-biphenyl",Clc1ccc(c2ccccc2)c(Cl)c1Cl,-6.1799
"1,3,7-trichloronaphthalene",Clc1ccc2cc(Cl)cc(Cl)c2c1,-6.5557
"2,3,6-trichloronaphthalene",Clc1ccc2cc(Cl)c(Cl)cc2c1,-7.1419
"1,4,6,7-tetrachloronaphthalene",Clc1ccc(Cl)c2cc(Cl)c(Cl)cc12,-7.5163
mepronil,CC(C)Oc1cccc(NC(=O)c2ccccc2C)c1,-4.3265
isouron,CN(C)C(=O)Nc1cc(on1)C(C)(C)C,-2.4272
sufentanil,CCC(=O)N(c1ccccc1)C2(CCN(CCc3sccc3)CC2)COC,-3.7064
"2,2',3,4,4',6-hexachlorobiphenyl",Clc1ccc(c(Cl)c1)c2c(Cl)cc(Cl)c(Cl)c2Cl,-7.4721
"2-heptanol, 4-methyl-",CCCC(C)CC(C)O,-1.8779
flurprimidol,CC(C)C(O)(c1ccc(OC(F)(F)F)cc1)c2cncnc2,-3.4377
"benzenepropanal, .alpha.-oxo-",O=CC(=O)Cc1ccccc1,-2.1707
"2,2',4,6,6'-pentachlorobiphenyl",Clc1cc(Cl)c(c(Cl)c1)c2c(Cl)cccc2Cl,-7.316
"2,3',4,4',6-pentachlorobiphenyl",Clc1cc(Cl)c(c(Cl)c1)c2ccc(Cl)c(Cl)c2,-7.91
"1,1'-biphenyl, 2,3',4,5',6-pentachloro-",Clc1cc(Cl)c(c(Cl)c1)c2cc(Cl)cc(Cl)c2,-7.92
"1(2h)-pyrimidinecarboxamide, 5-fluoro-3,4-dichlo",FC1=CN(C(=O)NC1=O)C(=O)Nc2ccccc2,-1.6184
t-butylphenyl diphenyl phosphate,CC(C)(C)c1ccc(O[P](=O)(Oc2ccccc2)Oc3ccccc3)cc1,-5.0774
tolclofos-methyl,CO[P](=S)(OC)Oc1c(Cl)cc(C)cc1Cl,-5.4374
isomethiozin,CSC1=NN=C(C(=O)N1\N=C\C(C)C)C(C)(C)C,-4.4288
"3,4,5-trichloro-2-methoxyphenol",COc1c(O)cc(Cl)c(Cl)c1Cl,-2.8712
"2,3,4,7,8-pentachlorodibenzofuran",Clc1cc2oc3c(Cl)c(Cl)c(Cl)cc3c2cc1Cl,-9.1609
"1(3h)-isobenzofuranone, 6-amino-",Nc1ccc2COC(=O)c2c1,-2.0414
pyroquilon,O=C1CCc2cccc3CCN1c23,-1.6365
phenisopham,CCN(C(=O)Oc1cccc(NC(=O)OC(C)C)c1)c2ccccc2,-5.0574
fluotrimazole,FC(F)(F)c1cccc(c1)C(n2cncn2)(c3ccccc3)c4ccccc4,-8.402999999999999
"acetamide, n-[2-(benzoyloxy)ethyl]-n-methyl-",CN(CCOC(=O)c1ccccc1)C(C)=O,-0.8494
furalaxyl,COC(=O)C(C)N(C(=O)c1occc1)c2c(C)cccc2C,-3.1173
"benzenamine, 4-methyl-2-[(4-methylphenyl)azo]-",Cc1ccc(cc1)N=Nc2cc(C)ccc2N,-3.9031
"2,4(3h,5h)-pyrimidinedione, 6-amino-5,5-diethyl-",CCC1(CC)C(=NC(=O)NC1=O)N,-1.3967
"1(3h)-isobenzofuranone, 3-methyl-6-nitro-",CC1OC(=O)c2cc(ccc12)[N+]([O-])=O,-2.6157
"4'-(Bis(2-hydroxyethyl)amino)-2,6-dichloro-2'-methyl-4-nitroazobenzene",Cc1cc(ccc1N=Nc2c(Cl)cc(cc2Cl)[N+]([O-])=O)N(CCO)CCO,-5.9592
"benzenesulfonic acid, 3-amino-2,4,6-tribromo-",Nc1c(Br)cc(Br)c(c1Br)[S](O)(=O)=O,-0.4888
flamprop,CC(N(c1ccc(F)c(Cl)c1)C(=O)c2ccccc2)C(O)=O,-4.2474
ofurace,Cc1cccc(C)c1N(C2CCOC2=O)C(=O)CCl,-3.2855
ranimustine,COC1OC(CNC(=O)N(CCCl)N=O)C(O)C(O)C1O,-1.5613
"2,4,4'-trichlorodiphenyl ether",Clc1ccc(Oc2ccc(Cl)cc2Cl)cc1,-6.2196
"phosphoric acid, dimethyl propyl ester",CCCO[P](=O)(OC)OC,0.4733
"biphenyl, 2,2',3,4,4',6'-hexachloro-",Clc1cc(Cl)c(c(Cl)c1)c2ccc(Cl)c(Cl)c2Cl,-8.2399
5-methyl-hex-3-enoic acid,CC(C)C=CCC(O)=O,-1.1487
thiodicarb,CSC(/C)=N/OC(=O)N(C)SN(C)C(=O)O\N=C(/C)SC,-4.0055
fluridone,CN1C=C(c2ccccc2)C(=O)C(=C1)c3cccc(c3)C(F)(F)F,-4.4384
"2-propenoic acid, 3-(2-ethoxyphenyl)-, (e)-",CCOc1ccccc1\C=C\C([O-])=O,-3.3248
"1,1'-biphenyl, 2,2',4,5',6-pentachloro-",Clc1ccc(Cl)c(c1)c2c(Cl)cc(Cl)cc2Cl,-7.47
"1,1'-biphenyl, 2,2',4,4',5,6'-hexachloro-",Clc1cc(Cl)c(c(Cl)c1)c2cc(Cl)c(Cl)cc2Cl,-8.1199
"1,1'-biphenyl, 2,2',3,4,4',5,6'-heptachloro-",Clc1cc(Cl)c(c(Cl)c1)c2cc(Cl)c(Cl)c(Cl)c2Cl,-8.68
"propane, 2,2-bis(methylsulfonyl)-",CC(C)([S](C)(=O)=O)[S](C)(=O)=O,-1.4504
"2(1h)-pyridinone, 5-iodo-1-methyl-",CN1C=C(I)C=CC1=O,-0.0094
iopamidol,C[C@H](O)C(=O)Nc1c(I)c(C(=O)NC(CO)CO)c(I)c(C(=O)NC(CO)CO)c1I,-0.7443
fenarimol,OC(c1ccc(Cl)cc1)(c2cncnc2)c3ccccc3Cl,-4.374
azaconazol,Clc1ccc(c(Cl)c1)C2(Cn3cncn3)OCCO2,-3.0031
propiconazole,CCCC1COC(Cn2cncn2)(O1)c3ccc(Cl)cc3Cl,-3.4929
"1-[[2-(2,4-dichlorophenyl)-4-ethyl-1,3-dioxolan-",CCC1COC(Cn2cncn2)(O1)c3ccc(Cl)cc3Cl,-3.613
"2,3',4,6-tetrachlorobiphenyl",Clc1cccc(c1)c2c(Cl)cc(Cl)cc2Cl,-7.1547
"1,1'-biphenyl, 2,2',3,4',6'-pentachloro-",Clc1cc(Cl)c(c(Cl)c1)c2cccc(Cl)c2Cl,-7.3999
"phosphorothioic acid, o-(dichloro(methylthio)phe",CCO[P](=S)(OCC)Oc1cc(Cl)c(Cl)c(SC)c1,-6.0807
"o-diselenane-3,6-dicarboxylic acid, trans-(+)-",OC(=O)[C@H]1CC[C@@H]([Se][Se]1)C(O)=O,-2.1053
"benzeneacetic acid, .alpha.-(ethylthio)-",CCSC(C(O)=O)c1ccccc1,-1.5686
1h-imidazole-4-sulfonic acid,O[S](=O)(=O)c1c[nH]cn1,0.1304
"glycine, n-[n-(2-bromo-1-oxopropyl)glycyl]-, (.+",CC(Br)C(=O)NCC(=O)NCC(O)=O,-0.9642
"thiourea, cyano-",NC(=S)NC#N,-0.0049
"2',3,4-trichlorodiphenyl ether",Clc1ccc(Oc2ccccc2Cl)cc1Cl,-5.199
"propanoic acid, 2-(1-oxopropoxy)-, methyl ester",CCC(=O)OC(C)C(=O)OC,-0.8622
dimepiperate,CC(C)(SC(=O)N1CCCCC1)c2ccccc2,-4.1196
"1h-imidazole, 2-(2-methylpropyl)-",CC(C)Cc1[nH]ccn1,-1.0488
tifatol,CN1C=CSC1=Nc2ccc(C)cc2C,-3.1630000000000003
"carbamimidothioic acid, trimethyl-, methyl ester",CSC(=NC)N(C)C,-0.4401
"2,2',3,3',4,6-hexachlorobiphenyl",Clc1cccc(c1Cl)c2c(Cl)cc(Cl)c(Cl)c2Cl,-8.48
"benzamide, 2,5-dihydroxy-n-(2-hydroxyethyl)-",OCCNC(=O)c1cc(O)ccc1O,-0.5436
"1,3,6-naphthalenetrisulfonic acid, 4-amino-",Nc1c2cc(ccc2c(cc1[S](O)(=O)=O)[S](O)(=O)=O)[S](O)(=O)=O,-0.3188
"benzenemethanol, 2,3(or 3,4)-dichloro-, methyl c",CNC(=O)OCc1cccc(Cl)c1Cl,-3.1389
"urea, n-butyl-n-phenyl",CCCCN(C(N)=O)c1ccccc1,-1.2971
"2,2',4,6-tetrachlorobiphenyl",Clc1cc(Cl)c(c(Cl)c1)c2ccccc2Cl,-6.65
fenothiocarb,CN(C)C(=O)SCCCCOc1ccccc1,-3.9266
diclomezine,Cc1c(Cl)cc(cc1Cl)C2=NNC(=O)C=C2,-5.5375
"benzeneacetonitrile, alpha-((cyanomethoxy)imino)",N#CCO/N=C(C#N)/c1ccccc1,-3.2899
"5-pyrimidinemethanol, .alpha.-(2-chlorophenyl)-.",OC(c1ccc(F)cc1)(c2cncnc2)c3ccccc3Cl,-4.083
"3,4,4'-trichlorodiphenyl ether",Clc1ccc(Oc2ccc(Cl)c(Cl)c2)cc1,-5.6603
"pentanamide, 2-bromo-2-propyl-",CCCC(Br)(CCC)C(N)=O,-1.8281
flamprop-m-methyl,COC(=O)[C@@H](C)N(C(=O)c1ccccc1)c2ccc(F)c(Cl)c2,-4.3219
flamprop-m-isopropyl,CC(C)OC(=O)[C@@H](C)N(C(=O)c1ccccc1)c2ccc(F)c(Cl)c2,-4.4817
diofenolan,CC[C@H]1OC[C@@H](COc2ccc(Oc3ccccc3)cc2)O1,-4.7874
"1h-purine-2,6-dione, 3,7-dihydro-3,7-dimethyl-1-",CCCN1C(=O)N(C)c2ncn(C)c2C1=O,-1.2082
"ethanamine, n,2-dichloro-n-(2-chloroethyl)-",ClCCN(Cl)CCCl,-1.9203
cycloprothrin,CCOc1ccc(cc1)C2(CC2(Cl)Cl)C(=O)OC(C#N)c3cccc(Oc4ccccc4)c3,-6.7243
"1-piperazinecarboxylic acid, 4,4'-methylenebis-,",CCOC(=O)N1CCN(CC1)CN2CCN(CC2)C(=O)OCC,-0.8443
"1(2h)-pyrimidinecarboxamide, n-butyl-5-fluoro-3,",CCCCNC(=O)N1C=C(F)C(=O)NC1=O,-2.4464
anilofos,CO[P](=S)(OC)SCC(=O)N(C(C)C)c1ccc(Cl)cc1,-4.4321
glycoursodeoxycholic acid,C[C@H](CCC(=O)NCC(O)=O)[C@H]1CCC2C3[C@@H](O)C[C@@H]4C[C@H](O)CC[C@]4(C)C3CC[C@]12C,-5.5225
ethiozin,CCSC1=NN=C(C(=O)N1N)C(C)(C)C,-2.7353
triflumuron,FC(F)(F)Oc1ccc(NC(=O)NC(=O)c2ccccc2Cl)cc1,-7.1568
"acetamide, 2-(benzoyloxy)-",NC(=O)COC(=O)c1ccccc1,-1.6405
"acetamide, 2-(benzoyloxy)-n-ethyl-",CCNC(=O)COC(=O)c1ccccc1,-2.2373
"benzoic acid, 2-(diethylamino)-2-oxoethyl ester",CCN(CC)C(=O)COC(=O)c1ccccc1,-2.0706
"dl-alanine, n-ethyl-",CCNC(C)C(O)=O,0.6522
"2,4(1h,3h)-pyrimidinedione, 5-aminodihydro-1,3-d",CN1C(=O)C(N)C(=S)N(C)C1=O,-1.117
"2,2',3,4,4'-pentachlorobiphenyl",Clc1ccc(c(Cl)c1)c2ccc(Cl)c(Cl)c2Cl,-7.62
4(1h)-pteridinethione,S=C1N=CNc2nccnc12,-2.6471
"1,3-propanediol, 2-nitro-1-phenyl-, diacetate (e",CC(=O)OCC(C(OC(C)=O)c1ccccc1)[N+]([O-])=O,-3.972
fenitropan,CC(=O)OC[C@H]([C@@H](OC(C)=O)c1ccccc1)[N+]([O-])=O,-3.972
esfenvalerate,CC(C)[C@@H](C(=O)O[C@@H](C#N)c1cccc(Oc2ccccc2)c1)c3ccc(Cl)cc3,-8.3221
penconazole,CCCC(Cn1cncn1)c2ccc(Cl)cc2Cl,-3.5903
flutolanil,CC(C)Oc1cccc(NC(=O)c2ccccc2C(F)(F)F)c1,-4.6947
fenoxaprop ethyl,CCOC(=O)C(C)Oc1ccc(Oc2oc3cc(Cl)ccc3n2)cc1,-5.6042
"3,3',4-trichlorodiphenyl ether",Clc1cccc(Oc2ccc(Cl)c(Cl)c2)c1,-5.437
tralomethrin,CC1(C)[C@@H](C(Br)C(Br)(Br)Br)[C@H]1C(=O)O[C@H](C#N)c2cccc(Oc3ccccc3)c2,-6.9197
"pentanamide, n-(aminocarbonyl)-2-bromo-",CCCC(Br)C(=O)NC(N)=O,-1.4278
"4-cycloocten-1-amine, n,n-dimethyl-",CN(C)C1CCCC=CCC1,-1.6004
methasulfocarb,CNC(=O)Sc1ccc(O[S](C)(=O)=O)cc1,-2.7359
"cyclopentanecarbonitrile, 1-methyl-2-oxo-",CC1(CCCC1=O)C#N,0.9095
metazachlor,Cc1cccc(C)c1N(Cn2cccn2)C(=O)CCl,-2.8102
"urea, (1,1-diethylpropyl)-",CCC(CC)(CC)NC(N)=O,-1.8191
fenpropimorph,CC(CN1CC(C)OC(C)C1)Cc2ccc(cc2)C(C)(C)C,-2.4821