Name,SMILES,Solubility
"2-benzoyloxy-n,n-di(2-hydroxyethyl)acetamide;  n,n-di(2-hydroxyethyl)-2-(benzoyloxy)acetamide",OCCN(CCO)C(=O)COC(=O)C1=CC=CC=C1,0.43
hexyl  5-fluorouracil-1-carboxylate;  1-hexoxycarbonyl-5-fluorouracil,CCCCCCOC(=O)N1C=C(F)C(=O)NC1=O,-2.24
"(n,n-diethyl)carbamoylmethyl  salicylate;  n,n-diethyl-2-(salicyloyloxy)acetamide",CCN(CC)C(=O)COC(=O)C1=C(O)C=CC=C1,-2.56
dextromethorphan,COC1=CC2=C(CC3C4CCCCC24CCN3C)C=C1,-3.48
"n1,n1,n4-trimethylsulfanilamide",CNC1=CC=C(C=C1)[S](=O)(=O)N(C)C,-3.08
2-benzoyloxy-n-[(tris-hydroxymethyl)methyl]acetamide,OCC(CO)(CO)NC(=O)COC(=O)C1=CC=CC=C1,-1.27
n-(2-benzoyloxyacetyl)-n-methylglycineamide,CN(CC(N)=O)C(=O)COC(=O)C1=CC=CC=C1,-0.92
1-(n-octylcarbamoyl)-5-fluorouracil;  1-octylaminocarbonyl-5-fluorouracil,CCCCCCCCNC(=O)N1C=C(F)C(=O)NC1=O,-4.18
"n-[2-(benzoyloxy)acetyl]-2,6-dimethylpiperidine",CC1CCCC(C)N1C(=O)COC(=O)C2=CC=CC=C2,-3.26
"2-benzoyloxy-n,n-bis(2-methoxyethyl)acetamide; n,n-bis(2-methoxyethyl)-2-benzoyloxyacetamide",COCCN(CCOC)C(=O)COC(=O)C1=CC=CC=C1,-1.57
carbamoylmethyl  acetylsalicylate;  2-(2-acetoxybenzoyloxy)acetamide,CC(=O)OC1=CC=CC=C1C(=O)OCC(N)=O,-1.79
furmecyclox;  furmetamide,CON(C1CCCCC1)C(=O)C2=C(C)OC(=C2)C,-2.92
2-biphenylcarboxylic  acid;  2-phenylbenzoic acid,OC(=O)C1=C(C=CC=C1)C2=CC=CC=C2,-2.73
ethyl n-(benzoyloxyacetyl)-n-methylglycinate; n-(benzoyloxyacetyl)-n-methylglycine ethyl ester,CCOC(=O)CN(C)C(=O)COC(=O)C1=CC=CC=C1,-1.67
1-(acetoxymethyl)allopurinol,CC(=O)OC[N]1N=CC2=C1N=CNC2=O,-2.56
2-carboxy-n(benzoyloxyacetyl)azetidine,OC(=O)C1CCN1C(=O)COC(=O)C2=CC=CC=C2,-2.14
flurochloridone,FC(F)(F)C1=CC=CC(=C1)N2CC(CCl)C(Cl)C2=O,-4.05
n-ethyl-2-[(2-acetoxy)benzoyloxy]acetamide,CCNC(=O)COC(=O)C1=CC=CC=C1OC(C)=O,-1.68
ethoxycarbonylmetyl  acetylsalicylate;  2-(2-acetoxybenzoyloxy)acetic acid ethyl ester,CCOC(=O)COC(=O)C1=CC=CC=C1OC(C)=O,-2.58
"n,n-dimethyl-2-[(2-acetoxy)benzoyloxy]acetamide",CN(C)C(=O)COC(=O)C1=CC=CC=C1OC(C)=O,-1.55
"n4-formyl-n1,n1,n4-trimethylsulfanilamide; n-[(4-dimethylsulfamoyl)phenyl]-n-methylformamide",CN(C)[S](=O)(=O)C1=CC=C(C=C1)N(C)C=O,-2.37
o-acetyl-6-deoxyacyclovir,CC(=O)OCCOC[N]1C=NC2=C1N=C(N)N=C2,-0.97
n-(benzoyloxyacetyl)prolinamide,NC(=O)C1CCCN1C(=O)COC(=O)C2=CC=CC=C2,-2.27
"morphine;  7,8-didehydro-4,5-epoxy-17-methylmorphinan-3,6-diol",CN1CCC23C4OC5=C(O)C=CC(=C25)CC1C3C=CC4O,-3.15
n-(benzoyloxyacetyl)proline,OC(=O)C1CCCN1C(=O)COC(=O)C2=CC=CC=C2,-1.59
allopurin-2-yl-methyl  butyrate;  2-(butanoyloxymethyl)allopurinol,CCCC(=O)OC[N]1C=C2C(=O)NC=NC2=N1,-2.2
allopurin-1-yl-methyl  butyrate;   1-(butanoyloxymethyl)allopurinol,CCCC(=O)OC[N]1N=CC2=C1N=CNC2=O,-2.83
n-acetyl-6-deoxyacyclovir,CC(=O)NC1=NC2=C(C=N1)N=C[N]2COCCO,-0.86
"n1,n1,n4-trimethyl-n4-acetylsulfanilamide",CN(C)[S](=O)(=O)C1=CC=C(C=C1)N(C)C(C)=O,-2.3
metalaxyl;  apron   (racemate),COCC(=O)N(C(C)C(=O)OC)C1=C(C)C=CC=C1C,-1.6
"(n,n-diethyl)carbamoylmethyl  acetylsalicylate;  n,n-diethyl-2-(2-acetoxybenzoyloxy)acetamide",CCN(CC)C(=O)COC(=O)C1=CC=CC=C1OC(C)=O,-2.11
2-(pivaloyloxymethyl)allopurinol,CC(C)(C)C(=O)OC[N]1C=C2C(=O)NC=NC2=N1,-2.17
transfluthrin,CC1(C)C(C=C(Cl)Cl)C1C(=O)OCC2=C(F)C(=CC(=C2F)F)F,-6.81
1-(pivaloyloxymethyl)allopurinol,CC(C)(C)C(=O)OC[N]1N=CC2=C1N=CNC2=O,-2.68
"3,4,5-trichlorodiphenyl  ether",ClC1=C(Cl)C(=CC(=C1)OC2=CC=CC=C2)Cl,-6.77
o-acetylacyclovir,CC(=O)OCCOC[N]1C=NC2=C1N=C(N)NC2=O,-2.7
"n1,n1,n4-trimethyl-n4-propanoylsulfanilamide",CCC(=O)N(C)C1=CC=C(C=C1)[S](=O)(=O)N(C)C,-2.48
"2,4,5-trichlorodiphenyl  ether",ClC1=CC(=C(OC2=CC=CC=C2)C=C1Cl)Cl,-6.58
morpholin-4-ylcarbonylmethyl  acetylsalicylate; n-[2-(2-acetoxybenzoyloxy)acetyl]morpholine,CC(=O)OC1=CC=CC=C1C(=O)OCC(=O)N2CCOCC2,-1.8
1-amino-2-naphthalenesulfonic  acid,NC1=C(C=CC2=C1C=CC=C2)[S](O)(=O)=O,-2.96
fluroxypyr-meptyl;  fluroxypyr 1-methylheptyl ester,CCCCCCC(C)OC(=O)COC1=NC(=C(Cl)C(=C1Cl)N)F,-6.43
3-benzoyl-5-fluorouracil,FC1=CNC(=O)N(C1=O)C(=O)C2=CC=CC=C2,-2.26
2-acetoxybenzoic acid dipropylcarbamoylmethyl ester,CCCN(CCC)C(=O)COC(=O)C1=CC=CC=C1OC(C)=O,-2.65
ferimzone,CC1=CC(=NC(=N1)NN=C(C)C2=CC=CC=C2C)C,-3.2
n-[2-(2-acetoxybenzoyloxy)acetyl]glycineamide,CC(=O)OC1=CC=CC=C1C(=O)OCC(=O)NCC(N)=O,-2.52
"n1,n1,n4-trimethyl-n4-(butanoyl)sulfanilamide",CCCC(=O)N(C)C1=CC=C(C=C1)[S](=O)(=O)N(C)C,-2.16
chloroquine,CCN(CC)CCCC(C)NC1=CC=NC2=C1C=CC(=C2)Cl,-2.83
"n,n-diethyl-2-[(2-acetoxy)benzoyloxy]propanoic acid amide",CCN(CC)C(=O)C(C)OC(=O)C1=CC=CC=C1OC(C)=O,-1.6
2-acetoxybenzoic acid diisopropylcarbamoylmethyl ester,CC(C)N(C(C)C)C(=O)COC(=O)C1=CC=CC=C1OC(C)=O,-3.25
n-acetylacyclovir,CC(=O)NC1=NC2=C(N=C[N]2COCCO)C(=O)N1,-1.92
tolfenamic acid;  n-(2-methyl-3-chlorophenyl)anthranilic  acid,CC1=C(NC2=CC=CC=C2C(O)=O)C=CC=C1Cl,-5.06
nalidixic acid methyl ester;  methyl  nalidixate,CCN1C=C(C(=O)OC)C(=O)C2=C1N=C(C)C=C2,-2.7
benzyl  5-fluorouracil-1-carboxylate;  1-benzyloxycarbonyl-5-fluorouracil,FC1=CN(C(=O)NC1=O)C(=O)OCC2=CC=CC=C2,-2.82
hexythiazox,CC1C(SC(=O)N1C(=O)NC2CCCCC2)C3=CC=C(Cl)C=C3,-5.85
phenyl  5-fluorouracil-1-carboxylate;  1-phenyloxycarbonyl-5-fluorouracil,FC1=CN(C(=O)NC1=O)C(=O)OC2=CC=CC=C2,-2.44
"n1,n1,n4-trimethyl-n4-pentanoylsulfanilamide",CCCCC(=O)N(C)C1=CC=C(C=C1)[S](=O)(=O)N(C)C,-2.85
"n9-(n,n-diethylglycyloxymethyl)allopurinol",CCN(CC)CC(=O)OC[N]1N=CC2=C1N=CNC2=O,-1.79
phenyl  5-fluorouracil-3-carboxylate;  3-phenyloxycarbonyl-5-fluorouracil,FC1=CNC(=O)N(C(=O)OC2=CC=CC=C2)C1=O,-3.22
guanosine,NC1=NC2=C(N=C[N]2C3OC(CO)C(O)C3O)C(=O)N1,-2.74
"n1,n1-dimethyl-n4-hexanoyl-n4-methylsulfanilamide; n-[(4-dimethylsulfamoyl)phenyl]-n-methylhexanoic acid amide",CCCCCC(=O)N(C)C1=CC=C(C=C1)[S](=O)(=O)N(C)C,-2.95
"n,o-diacetyl-6-deoxyacyclovir",CC(=O)NC1=NC2=C(C=N1)N=C[N]2COCCOC(C)=O,-0.73
paclobutrazol,CC(C)(C)C(O)C(CC1=CC=C(Cl)C=C1)[N]2C=NC=N2,-4.05
celiprolol,CCN(CC)C(=O)NC1=CC(=C(OCC(O)CNC(C)(C)C)C=C1)C(C)=O,-1.9
n-2-(2-acetoxybenzoyloxy)acetylglycine ethyl ester,CCOC(=O)CNC(=O)COC(=O)C1=CC=CC=C1OC(C)=O,-1.87
"2,2',4,4'-tetrachlorodiphenyl  ether",ClC1=CC(=C(OC2=CC=C(Cl)C=C2Cl)C=C1)Cl,-6.82
dicapthon;  dicaptan,CO[P](=S)(OC)OC1=C(Cl)C=C(C=C1)[N+]([O-])=O,-4.68
3-(phenoxycarboxymethyl)-5-fluorouracil; 3-(phenoxycarbonyloxymethyl)-5-fluorouracil,FC1=CNC(=O)N(COC(=O)OC2=CC=CC=C2)C1=O,-2.45
n-[4-(dimethylsulfamoyl)phenyl]-n-methylheptanoic acid amide,CCCCCCC(=O)N(C)C1=CC=C(C=C1)[S](=O)(=O)N(C)C,-3.68
"n1,n4,n4-trimethyl-n1-(heptanoyl)sulfanilamide",CCCCCCC(=O)N(C)[S](=O)(=O)C1=CC=C(C=C1)N(C)C,-3.68
"n1,n1,n4-trimethyl-n4-(octanoyl)sulfanilamide; n-[(4-dimethylsulfamoyl)phenyl]-n-methyloctanoic acid amide",CCCCCCCC(=O)N(C)C1=CC=C(C=C1)[S](=O)(=O)N(C)C,-3.59
"2,5-bis(acetoxymethyl)allopurinol",CC(=O)OC[N]1C=C2C(=O)N(COC(C)=O)C=NC2=N1,-1.99
n-methyl-n-(2-(2'-acetoxy)benzoyloxy)acetylglycine ethyl ester,CCOC(=O)CN(C)C(=O)COC(=O)C1=CC=CC=C1OC(C)=O,-2.55
naproxen carbamoylmethyl ester;  naproxen  ester va,COC1=CC=C2C=C(C=CC2=C1)C(C)C(=O)OCC(N)=O,-3.93
azamethiphos,CO[P](=O)(OC)SCN1C(=O)OC2=CC(=CN=C12)Cl,-2.47
naloxone,OC1=C2OC3C(=O)CCC4(O)C5CC(=C2C34CCN5CC=C)C=C1,-3.39
"succinimid-1-ylmethyl  acetylsalicylate;  n-[(2-acetoxy)benzoyloxymethyl]pyrrolidine-2,5-dione",CC(=O)OC1=CC=CC=C1C(=O)OCN2C(=O)CCC2=O,-2.77
desmedipham,CCOC(=O)NC1=CC(=CC=C1)OC(=O)NC2=CC=CC=C2,-4.52
indoprofen,CC(C(O)=O)C1=CC=C(C=C1)N2CC3=C(C=CC=C3)C2=O,-4.72
"n,o-diacetylacyclovir",CC(=O)NC1=NC2=C(N=C[N]2COCCOC(C)=O)C(=O)N1,-2.14
"triazoxide;  7-chloro-3-(1h-imidazol-1-yl)-1,2,4-benzotriazine 1-oxide",[O-][N+]1=NC(=NC2=C1C=C(Cl)C=C2)[N]3C=CN=C3,-3.63
"sulfamoxole;  2-sulfa-4,5-dimethyloxazole",CC1=C(C)N=C(N[S](=O)(=O)C2=CC=C(N)C=C2)O1,-2.22
"2,3,3',4,4'-pentachlorodiphenyl  ether",ClC1=CC=C(OC2=C(Cl)C(=C(Cl)C=C2)Cl)C=C1Cl,-7.67
itanoxone,OC(=O)C(=C)CC(=O)C1=CC=C(C=C1)C2=CC=CC=C2Cl,-3.2
"1-(n,n-diethylsuccinamoyloxymethyl)allopurinol",CCN(CC)C(=O)CCC(=O)OC[N]1N=CC2=C1N=CNC2=O,-0.99
"naproxen (n,n-dimethylcarbamoyl)methyl ester",COC1=CC=C2C=C(C=CC2=C1)C(C)C(=O)OCC(=O)N(C)C,-4.9
"tetrachlorvinphos;  2-chloro-1-(2,4,5-trichlorophenyl)vinyl dimethyl phosphate",CO[P](=O)(OC)OC(=C\Cl)/C1=C(Cl)C=C(Cl)C(=C1)Cl,-4.52
kresoxim-methyl,CO/N=C(C(=O)OC)/C1=C(COC2=C(C)C=CC=C2)C=CC=C1,-5.19
"eriodictyol;  3',4',5,7-tetrahydroxyflavanone",OC1=CC(=C2C(=O)CC(OC2=C1)C3=CC=C(O)C(=C3)O)O,-3.62
acetoxymethyl  nalidixate;  nalidixic acid acetoxymethyl ester,CCN1C=C(C(=O)OCOC(C)=O)C(=O)C2=C1N=C(C)C=C2,-2.49
1-(benzoyloxymethyl)allopurinol,O=C1NC=NC2=C1C=N[N]2COC(=O)C3=CC=CC=C3,-4.05
"2,5-bis(butanoyloxymethyl)allopurinol",CCCC(=O)OC[N]1C=C2C(=O)N(COC(=O)CCC)C=NC2=N1,-3.55
propanoyloxymethyl  nalidixate;  nalidixic acid propanoyloxymethyl ester,CCN1C=C(C(=O)OCOC(=O)CC)C(=O)C2=C1N=C(C)C=C2,-2.83
fensulfothion-sulfone,CCO[P](=S)(OCC)OC1=CC=C(C=C1)[S](C)(=O)=O,-3.58
"naproxen (n,n-diethylcarbamoyl)methyl ester",CCN(CC)C(=O)COC(=O)C(C)C1=CC2=CC=C(OC)C=C2C=C1,-4.46
naproxen ester ve;  naproxen [n-(2-hydroxyethyl)-n-methyl-carbamoyl]methyl ester,COC1=CC=C2C=C(C=CC2=C1)C(C)C(=O)OCC(=O)N(C)CCO,-3.39
"2,5-bis(pivaloyloxymethyl)allopurinol",CC(C)(C)C(=O)OC[N]1C=C2C(=O)N(COC(=O)C(C)(C)C)C=NC2=N1,-3.91
"2,3',4,4',5,5'-hexachlorodiphenyl  ether",ClC1=CC(=C(OC2=CC(=C(Cl)C(=C2)Cl)Cl)C=C1Cl)Cl,-8.72
oxadiazon,CC(C)OC1=C(Cl)C=C(Cl)C(=C1)N2N=C(OC2=O)C(C)(C)C,-5.54
"2,3,3',4,4',5-hexachlorodiphenyl  ether",ClC1=CC=C(OC2=C(Cl)C(=C(Cl)C(=C2)Cl)Cl)C=C1Cl,-8.78
"2,2',4,4',5,5'-hexachlorodiphenyl  ether",ClC1=CC(=C(OC2=CC(=C(Cl)C=C2Cl)Cl)C=C1Cl)Cl,-8.36
"1,5-bis(pivaloyloxymethyl)allopurinol",CC(C)(C)C(=O)OCN1C=NC2=C(C=N[N]2COC(=O)C(C)(C)C)C1=O,-4.26
"2,2',3,4,4',5'-hexachlorodiphenyl  ether",ClC1=C(Cl)C(=C(OC2=CC(=C(Cl)C=C2Cl)Cl)C=C1)Cl,-8.31
methyl thiabendazole-1-carboxylate; 1-methoxycarbonylthiabendazole; 1-methoxycarbonyl-2-(4-thiazolyl)benzimidazole,COC(=O)[N]1C2=C(C=CC=C2)N=C1C3=CSC=N3,-3.11
"2,2',3,3',4,4'-hexachlorodiphenyl  ether",ClC1=C(Cl)C(=C(OC2=CC=C(Cl)C(=C2Cl)Cl)C=C1)Cl,-8.14
butanoyloxymethyl nalidixate;  nalidixic acid butanoyloxymethyl ester,CCCC(=O)OCOC(=O)C1=CN(CC)C2=C(C=CC(=N2)C)C1=O,-2.95
"2,2',3,4,4',5-hexachlorodiphenyl  ether",ClC1=CC=C(OC2=C(Cl)C(=C(Cl)C(=C2)Cl)Cl)C(=C1)Cl,-8.44
"2,2',4,4',5,6'-hexachlorodiphenyl  ether",ClC1=CC(=C(OC2=C(Cl)C=C(Cl)C(=C2)Cl)C(=C1)Cl)Cl,-8.04
isobutanoyloxymethyl nalidixate;  nalidixic acid isobutanoyloxymethyl ester,CCN1C=C(C(=O)OCOC(=O)C(C)C)C(=O)C2=C1N=C(C)C=C2,-3.02
"2,2',3,4,4',6'-hexachlorodiphenyl  ether",ClC1=CC(=C(OC2=C(Cl)C(=C(Cl)C=C2)Cl)C(=C1)Cl)Cl,-8.1
"2,3,4,4',5,6-hexachlorodiphenyl  ether",ClC1=CC=C(OC2=C(Cl)C(=C(Cl)C(=C2Cl)Cl)Cl)C=C1,-8.94
clodinafop-propargyl,CC(OC1=CC=C(OC2=NC=C(Cl)C=C2F)C=C1)C(=O)OCC#C,-5.15
temazepam;  3-hydroxydiazepam,CN1C(=O)C(O)N=C(C2=CC=CC=C2)C3=C1C=CC(=C3)Cl,-2.7
clozapine,CN1CCN(CC1)C2=NC3=C(NC4=C2C=CC=C4)C=CC(=C3)Cl,-4.64
ethyl thiabendazole-1-carboxylate; 1-ethoxycarbonylthiabendazole; 1-ethoxycarbonyl-2-(4-thiazolyl)benzimidazole,CCOC(=O)[N]1C2=C(C=CC=C2)N=C1C3=CSC=N3,-2.92
"naproxen [n,n-bis(2-hydroxyethyl)carbamoyl]methyl ester",COC1=CC=C2C=C(C=CC2=C1)C(C)C(=O)OCC(=O)N(CCO)CCO,-2.96
prazepam,ClC1=CC2=C(C=C1)N(CC3CC3)C(=O)CN=C2C4=CC=CC=C4,-4.91
"n,n-diethylcarbamoylmethyl nalidixate;  nalidixic acid (n,n-diethylcarbamoyl)methyl ester",CCN(CC)C(=O)COC(=O)C1=CN(CC)C2=C(C=CC(=N2)C)C1=O,-1.43
naproxen ester vd; naproxen [n-(carbamoylmethyl)-n-(methyl)carbamoyl]methyl ester,COC1=CC=C2C=C(C=CC2=C1)C(C)C(=O)OCC(=O)N(C)CC(N)=O,-3.78
1-(propoxycarbonyl)thiabendazole,CCCOC(=O)[N]1C2=C(C=CC=C2)N=C1C3=CSC=N3,-3.52
coumatetralyl,OC1=C(C2CCCC3=CC=CC=C23)C(=O)OC4=CC=CC=C14,-4.86
"entacapone analog (2 b); (e)-2-cyano-n,n-diethyl-3-(3-butylaminocarbonyloxy-4-hydroxy-5-nitrophenyl)propenamide",CCCCNC(=O)OC1=C(O)C(=CC(=C1)\C=C(C#N)/C(=O)N(CC)CC)[N+]([O-])=O,-2.32
"2,2',3,4,4',5,5'-heptachlorodiphenyl  ether",ClC1=C(Cl)C=C(OC2=C(Cl)C(=C(Cl)C(=C2)Cl)Cl)C(=C1)Cl,-9.5
"2,3,3',4,4',5,6-heptachlorodiphenyl  ether",ClC1=CC=C(OC2=C(Cl)C(=C(Cl)C(=C2Cl)Cl)Cl)C=C1Cl,-9.46
"entacapone analog (2 c); (e)-2-cyano-n,n-diethyl-3-(3-tert-butylaminocarbonyloxy-4-hydroxy-5-nitrophenyl)propenamide",CCN(CC)C(=O)\C(=C/C1=CC(=C(O)C(=C1)[N+]([O-])=O)OC(=O)NC(C)(C)C)C#N,-3.53
"2,2',3,4',5,5',6-heptachlorodiphenyl  ether",ClC1=C(Cl)C=C(OC2=C(Cl)C(=CC(=C2Cl)Cl)Cl)C(=C1)Cl,-9.05
"2,2',3,3',4',5,6-heptachlorodiphenyl  ether",ClC1=CC=C(OC2=C(Cl)C(=CC(=C2Cl)Cl)Cl)C(=C1Cl)Cl,-9.09
"2,2',3,3',4,5,6'-heptachlorodiphenyl  ether",ClC1=CC=C(Cl)C(=C1Cl)OC2=C(Cl)C(=C(Cl)C(=C2)Cl)Cl,-8.89
1-(isobutoxycarbonyl)thiabendazole; 1-isobutoxycarbonyl-2-(thiazol-4-yl)benzimidazole,CC(C)COC(=O)[N]1C2=C(C=CC=C2)N=C1C3=CSC=N3,-4.17
"leptophos, o-analog",CO[P](=O)(OC1=C(Cl)C=C(Br)C(=C1)Cl)C2=CC=CC=C2,-4.99
"2,2',3,4,4',5,5',6-octachlorodiphenyl  ether",ClC1=C(Cl)C=C(OC2=C(Cl)C(=C(Cl)C(=C2Cl)Cl)Cl)C(=C1)Cl,-10.1
"2,2',3,3',4,4',5,6-octachlorodiphenyl  ether",ClC1=C(Cl)C(=C(OC2=C(Cl)C(=C(Cl)C(=C2Cl)Cl)Cl)C=C1)Cl,-10.6
"2,2',3,3',4,5,5',6'-octachlorodiphenyl  ether",ClC1=C(Cl)C(=C(Cl)C(=C1)Cl)OC2=C(Cl)C(=C(Cl)C(=C2)Cl)Cl,-10.1
(z)-pyriminobac-methyl,CO\N=C(C)/C1=CC=CC(=C1C(=O)OC)OC2=NC(=CC(=N2)OC)OC,-3.31
omeprazole,COC1=CC2=C([NH]C(=N2)[S](=O)CC3=C(C)C(=C(C)C=N3)OC)C=C1,-4.28
(r)-quizalofop-ethyl,CCOC(=O)C(C)OC1=CC=C(OC2=NC3=C(C=C(Cl)C=C3)N=C2)C=C1,-5.97
"13h-dibenzo[a,i]carbazole",[NH]1C2=C(C=CC3=C2C=CC=C3)C4=C1C5=C(C=CC=C5)C=C4,-7.41
acyclovir  ester  x;  omega-acyclovir (4-morpholin-4-ylmethyl)benzoate,NC1=NC2=C(N=C[N]2COCCOC(=O)C3=CC=C(CN4CCOCC4)C=C3)C(=O)N1,-2.75
hexaflumuron;  consult,FC(F)C(F)(F)OC1=C(Cl)C=C(NC(=O)NC(=O)C2=C(F)C=CC=C2F)C=C1Cl,-5.82
bromofenoxim,OC1=C(Br)C=C(\C=N\OC2=C(C=C(C=C2)[N+]([O-])=O)[N+]([O-])=O)C=C1Br,-5.19
difenoconazole,CC1COC(C[N]2C=NC=N2)(O1)C3=C(Cl)C=C(OC4=CC=C(Cl)C=C4)C=C3,-4.91
dithianon,O=C1C2=C(SC(=C(S2)C#N)C#N)C(=O)C3=C1C=CC=C3,-6.33
clofazimine,CC(C)N=C1C=C2N(C3=CC=C(Cl)C=C3)C4=C(C=CC=C4)N=C2C=C1NC5=CC=C(Cl)C=C5,-6.24
paclitaxel;  taxol a,CC(=O)OC1C(=O)C2(C)C(O)CC3OCC3(OC(C)=O)C2C(OC(=O)C4=CC=CC=C4)C5(O)CC(OC(=O)C(O)C(NC(=O)C6=CC=CC=C6)C7=CC=CC=C7)C(=C1C5(C)C)C,-6.33
hexamethyleneimine;  homopiperidine;  azacycloheptane; azepane,C1CCCNCC1,-0.49
"hexamethylethane;  2,2,3,3-tetramethylbutane",CC(C)(C)C(C)(C)C,-4.87
"2,5-dimethylpiperazine (trans)",CC1CNC(C)CN1,0.49
dl-isovaline;  dl-2-amino-2-methylbutanoic acid,CCC(C)(N)C(O)=O,0.38
4-heptanone;  dipropyl  ketone,CCCC(=O)CCC,-1.48
d-quercitol;  pentahydroxycyclohexane,OC1CC(O)C(O)C(O)C1O,-0.17
ethambutol; emb,CCC(CO)NCCNC(CC)CO,0.57
amantadine;  1-aminoadamantane,N[C]12C[CH]3[CH2]C([CH2][CH](C3)C1)C2,-1.85
"(e)-1,2-diiodoethene;  1,2-diiodoethylene (trans)",I\C=C\I,-3.22
methylglyoxime,CC(\C=N\O)=N/O,-0.35
dl-norvaline;  dl-2-aminopentanoic  acid,CCCC(N)C(O)=O,-0.11
3-bromocrotonic  acid (trans);  3-bromo-(e)-2-butenoic acid,C\C(Br)=C\C(O)=O,-0.6
"2-bromo-2,2-diethylacetamide",CCC(Br)(CC)C(N)=O,-1.44
dimethylglyoxime,CC(=N\O)\C(C)=N\O,-2.16
"dl-methylsuccinic  acid;  dl-2-methyl-1,4-butanedioic acid",CC(CC(O)=O)C(O)=O,0.48
3-iodocrotonic  acid (trans);  3-iodo-(e)-2-butenoic acid,C\C(I)=C\C(O)=O,-1.16
pentadecanoic acid,CCCCCCCCCCCCCCC(O)=O,-4.31
glycylglycine,NCC(=O)NCC(O)=O,0.1
3-methyladipic  acid,CC(CCC(O)=O)CC(O)=O,0.09
"cycluron; 3-cyclooctyl-1,1-dimethylurea",CN(C)C(=O)NC1CCCCCCC1,-2.26
"shikimic  acid;  1-carboxy-3,4,5-trihydroxy-1-cyclohexene",OC1CC(=CC(O)C1O)C(O)=O,0.01
cantharidin,CC12C3CCC(O3)C1(C)C(=O)OC2=O,-3.82
heptadecanoic acid;  margaric acid,CCCCCCCCCCCCCCCCC(O)=O,-4.69
"trans, trans-muconic acid;  trans, trans-1,3-butadiene-1,4-dicarboxylic acid;  trans,trans-hexa-2,4-dienedioic acid",OC(=O)\C=C\C=C\C(O)=O,-2.85
"2-hydroxy-3,3,3-trichloropropanoic acid;  beta,beta,beta-trichlorolactic  acid;",OC(C(O)=O)C(Cl)(Cl)Cl,0.36
stearic  acid;  octadecanoic  acid,CCCCCCCCCCCCCCCCCC(O)=O,-4.98
succinimide,O=C1CCC(=O)N1,0.39
endo-bornyl  acetate;  endo-borneol acetate,CC(=O)OC1CC2CCC1(C)C2(C)C,-3.93
cycloserine;  4-aminoisoxazolidine-3-one,NC1CONC1=O,-0.01
3-cyclohexyl-2-mercaptopropenoic  acid,OC(=O)/C(S)=C/C1CCCCC1,-2.67
"1-cyclohexene-1,4-dicarboxylic  acid",OC(=O)C1CCC(=CC1)C(O)=O,-2.93
"1,11-undecanedicarboxylic acid;  tridecanedioic  acid;  brassylic  acid",OC(=O)CCCCCCCCCCCC(O)=O,-3.79
2-methylbenzyl  alcohol,CC1=CC=CC=C1CO,-1.09
"2,6-diaminopyridine",NC1=NC(=CC=C1)N,-0.08
"2,3-diaminopyridine",NC1=CC=CN=C1N,-1.75
vinyl stearate;  octadecanoic acid vinyl ester,CCCCCCCCCCCCCCCCCC(=O)OC=C,-6.15
5-methylcytosine,CC1=CNC(=O)N=C1N,-1.44
methyl  2-allyl-2-ethylmalonurate,CCC(CC=C)(C(=O)NC(N)=O)C(=O)OC,-1.92
Beta-d-Fructose,OCC(O)C(O)C(O)C(=O)CO,0.32
5-aminouracil,NC1=CNC(=O)NC1=O,-2.41
"1,2-dicyanobenzene;  phthalonitrile",N#CC1=C(C=CC=C1)C#N,-2.38
cartap,CN(C)C(CSC(N)=O)CSC(N)=O,-0.07
phenylglyoxal (monohydrate),O=CC(=O)C1=CC=CC=C1,-0.74
5-chlorofuran-2-carboxylic acid,OC(=O)C1=CC=C(Cl)O1,-1.69
phthalaldehyde,O=CC1=CC=CC=C1C=O,-1.34
tybamate,CCCCNC(=O)OCC(C)(CCC)COC(N)=O,-2.74
4-phenylbutyric  acid;  4-phenylbutanoic acid,OC(=O)CCCC1=CC=CC=C1,-1.78
"5,5-spirocycloheptylbarbituric  acid;  spiro-5,5-hexamethylenebarbituric acid",O=C1NC(=O)C2(CCCCCC2)C(=O)N1,-2.98
dopamine;  3-hydroxytyramine,NCCC1=CC(=C(O)C=C1)O,0.12
propionanilide,CCC(=O)NC1=CC=CC=C1,-1.55
5-ethyl-5-propyl-2-thiobarbituric acid,CCCC1(CC)C(=O)NC(=S)NC1=O,-2.8
5alpha-androst-16-en-3-one;   5alpha-androstenone,CC12CCC3C(CCC4CC(=O)CCC34C)C1CC=C2,-6.07
5-allyl-5-butylbarbituric  acid,CCCCC1(CC=C)C(=O)NC(=O)NC1=O,-2.17
"3,4-dimethylbenzoic  acid",CC1=C(C)C=C(C=C1)C(O)=O,-3.16
"2,4-dimethylbenzoic  acid",CC1=CC(=C(C=C1)C(O)=O)C,-2.97
"2,5-dimethylbenzoic  acid",CC1=CC(=C(C)C=C1)C(O)=O,-2.92
4-amino-n-methyl-benzamide,CNC(=O)C1=CC=C(N)C=C1,-1.24
4-isothiocyanatophenol,OC1=CC=C(C=C1)N=C=S,-2.67
5-butyl-5-ethyl-2-thiobarbituric acid,CCCCC1(CC)C(=O)NC(=S)NC1=O,-3.14
3-isothiocyanatophenol,OC1=CC=CC(=C1)N=C=S,-1.99
nandrolone,CC12CCC3C(CCC4=CC(=O)CCC34)C1CCC2O,-3.02
5-methylbarbituric acid,CC1C(=O)NC(=O)NC1=O,-1.13
"3,6-dimethylpiperazine-2,5-dione",CC1NC(=O)C(C)NC1=O,-0.75
abietic  acid,CC(C)C1=CC2=CCC3C(C)(CCCC3(C)C(O)=O)C2CC1,-3.8
benzoylformic  acid;  phenylglyoxylic  acid,OC(=O)C(=O)C1=CC=CC=C1,-0.37
"androstane-3beta,11beta-diol-17-one; androstane-3,11-diol-17-one;",CC12CCC(O)CC1CCC3C4CCC(=O)C4(C)CC(O)C23,-3.59
3-cyanobenzoic  acid,OC(=O)C1=CC(=CC=C1)C#N,-2.63
"methyl  2,6-dimethyl-2-(1-cyclohexen-1-yl)malonurate",CNC(=O)NC(=O)C(C)(C(=O)OC)C1=CCCCC1,-2.68
5-ethyl-5-pentyl-2-thiobarbituric  acid,CCCCCC1(CC)C(=O)NC(=S)NC1=O,-3.71
n-(hydroxymethyl)thiobenzamide,OCNC(=S)C1=CC=CC=C1,-1.14
4-(3-adamantan-1-ylureido)butanoic acid,OC(=O)CCCNC(=O)N[C]12C[CH]3[CH2]C([CH2][CH](C3)C1)C2,-1.6
3-methylsalicylic acid; 2-hydroxy-3-methylbenzoic acid,CC1=CC=CC(=C1O)C(O)=O,-2.04
6-methylsalicylic acid; 2-hydroxy-6-methylbenzoic acid,CC1=CC=CC(=C1C(O)=O)O,-2.04
vamidothion,CNC(=O)C(C)SCCS[P](=O)(OC)OC,0.54
3-bromofuran-2-carboxylic acid,OC(=O)C1=C(Br)C=CO1,-1.17
crimidine;  2-chloro-4-dimethylamino-6-methylpyrimidine,CN(C)C1=C(C)N=C(Cl)N=C1,-1.26
5-ethyl-5-hexyl-2-thiobarbituric  acid,CCCCCCC1(CC)C(=O)NC(=S)NC1=O,-4.08
"5,5-spirononamethylenebarbituric acid",O=C1NC(=O)C2(CCCCCCCCC2)C(=O)N1,-4.59
prasterone formate,CC12CCC3C(CC=C4CC(CCC34C)OC=O)C1CCC2=O,-4.41
"2,4-dihydroxybenzoic  acid;  beta-resorcylic  acid",OC(=O)C1=CC=C(O)C=C1O,-1.41
"3-isobutylpiperazine-2,5-dione",CC(C)CC1NC(=O)CNC1=O,-1.25
imidazole-2-sulfonic acid,O[S](=O)(=O)C1=NC=C[NH]1,-0.3
"5-phenyl-2,4-pentadienoic  acid",OC(=O)/C=C/C=C/C1=CC=CC=C1,-3.64
stanolone formate,CC12CCC(=O)CC1CCC3C4CCC(OC=O)C4(C)CCC23,-5.32
1-ethoxy-4-isothiocyanatobenzene,CCOC1=CC=C(C=C1)N=C=S,-4.26
"methoxymethyl  2-cyhexen-1-yl-2,6-dimethylmalonurate",CNC(=O)NC(=O)C(C)(C(=O)OCOC)C1=CCCCC1,-2.42
n-hydroxymethyl-4-methoxybenzamide,COC1=CC=C(C=C1)C(=O)NCO,-1.22
"(z)-3-chloro-(e)-3-phenylpropenoic acid (cis-cl, trans-c6h5)",OC(=O)/C=C(Cl)/C1=CC=CC=C1,-2.77
n-hydroxymethyl-3-methoxybenzamide,COC1=CC=CC(=C1)C(=O)NCO,-1.29
4-hexylbenzoic acid,CCCCCCC1=CC=C(C=C1)C(O)=O,-3.65
8-methylpurine,CC1=NC2=C([NH]1)C=NC=N2,-0.41
4-bromophenyl  isothiocyanate;  4-isothiocyanatobromobenzene,BrC1=CC=C(C=C1)N=C=S,-4.27
testosterone formate,CC12CCC3C(CCC4=CC(=O)CCC34C)C1CCC2OC=O,-4.93
4-acetylphenyl  isothiocyanate;  1-acetyl-4-isothiocyanatobenzene,CC(=O)C1=CC=C(C=C1)N=C=S,-4.02
8-aminopurine,NC1=NC2=C([NH]1)N=CN=C2,-2.43