Name,SMILES,Solubility
"(2R,3R,4R,5R)-hexane-1,2,3,4,5,6-hexol; (2S,3S,4S,5S,6R)-6-{[(2S,3S,4R,5S,6R)-2-carboxy-4,5,6-trihydroxyoxan-3-yl]oxy}-3,4,5-trihydroxyoxane-2-carboxylic acid; [(2S,3R,4R,5S,6S)-3-hydroxy-6-{[(2S,3R,4R,5S,6S)-3-hydroxy-6-{[(2S,3R,4R,5S,6S)-6-{[(2S,3R,4R,5S,6S)-3-hydroxy-6-{[(2S,3R,4R,5S,6R)-6-hydroxy-2-methyl-4,5-bis(sulfooxy)oxan-3-yl]oxy}-2-methyl-5-(sulfooxy)oxan-4-yl]oxy}-2-methyl-4,5-bis(sulfooxy)oxan-3-yl]oxy}-2-methyl-5-(sulfooxy)oxan-4-yl]oxy}-2-methyl-5-(sulfooxy)oxan-4-yl]oxidanesulfonic acid",C[C@@H]1O[C@@H](O[C@@H]2[C@H](C)O[C@@H](O)[C@@H](O[S](O)(=O)=O)[C@@H]2O[S](O)(=O)=O)[C@@H](O[S](O)(=O)=O)[C@H](O[C@@H]3O[C@@H](C)[C@@H](O[C@@H]4O[C@@H](C)[C@@H](O)[C@@H](O[C@@H]5O[C@@H](C)[C@@H](O)[C@@H](O[S](O)(=O)=O)[C@@H]5O[S](O)(=O)=O)[C@@H]4O[S](O)(=O)=O)[C@@H](O[S](O)(=O)=O)[C@@H]3O[S](O)(=O)=O)[C@@H]1O.OC[C@@H](O)[C@@H](O)[C@H](O)[C@H](O)CO.O[C@@H]6O[C@@H]([C@@H](O[C@@H]7O[C@@H]([C@@H](O)[C@H](O)[C@@H]7O)C(O)=O)[C@H](O)[C@@H]6O)C(O)=O,-0.5892058636
1-[bis(2-hydroxypropyl)amino]propan-2-ol,CC(O)CN(CC(C)O)CC(C)O,0.4173208759
"2,6-diaminohexanoic acid hydrochloride",[Cl-].NCCCC[C@H](N)C(O)=O.[H+],0.4373479501
2-acrylamido-2-methylpropanesulphonic acid,[Na+].CC(C)(C[S]([O-])(=O)=O)NC(=O)C=C,0.3386928662
"3,5-dimethyl-1,2-dioxolane-3,5-diol",CC1(O)CC(C)(O)OO1,0.5714408419
"3,6,9,12-tetraazatetradecane-1,14-diamine",NCCNCCNCCNCCNCCN,0.3327787326
"N,N-dimethyl-N'-(2,2,6,6-tetramethylpiperidin-4-yl)propane-1,3-diamine",CN(C)CCCNC1CC(C)(C)NC(C)(C)C1,0.316191362
nickel bis(dihydrogen phosphate),[Ni++].O[P](O)([O-])=O.O[P](O)([O-])=O,0.2964249182
"sodium 1,4-bis(2-methylpropoxy)-1,4-dioxobutane-2-sulfonate",[Na+].CC(C)COC(=O)CC(C(=O)OCC(C)C)[S]([O-])(=O)=O,0.1773743212
"sodium 1,4-bis[(4-methylpentan-2-yl)oxy]-1,4-dioxobutane-2-sulfonate",[Na+].CC(C)CC(C)OC(=O)CC(C(=O)OC(C)CC(C)C)[S]([O-])(=O)=O,0.1096259345
sodium 2-ethylhexyl sulfate,[Na+].CCCCC(CC)CO[S]([O-])(=O)=O,0.3329637961
sodium propanoate,[Na+].CCC([O-])=O,0.716422901
"trisodium 4-[(E)-2-{4-[(4-nitro-2-sulfophenyl)amino]phenyl}diazen-1-yl]-6-[(E)-2-{4-[(E)-2-{4-[(4-nitro-2-sulfophenyl)amino]phenyl}diazen-1-yl]-5-sulfonatonaphthalen-1-yl}diazen-1-yl]benzene-1,3-bis(olate)",[Na+].[Na+].[Na+].OC1=CC(=O)\C(C=C1N=Nc2ccc(N=Nc3ccc(Nc4ccc(cc4[S]([O-])(=O)=O)[N+]([O-])=O)cc3)c5c2cccc5[S]([O-])(=O)=O)=N/Nc6ccc(Nc7ccc(cc7[S]([O-])(=O)=O)[N+]([O-])=O)cc6,-0.3225773366
"3-(aminomethyl)-3,5,5-trimethylcyclohexan-1-amine",Cc1ccc(cc1)[S](O)(=O)=O.CC2(C)CC(N)CC(C)(CN)C2,0.1572981869
sodium prop-2-enoate,[Na+].[O-]C(=O)C=C,0.7150841112
"2-hydroxy-N,N,N-trimethylethanaminium hydroxide",[OH-].C[N+](C)(C)CCO,0.6032053211
"potassium sodium 7-{3-[(E)-2-{4-[(E)-2-(2-hydroxynaphthalen-1-yl)diazen-1-yl]phenyl}diazen-1-yl]benzenesulfonamido}naphthalene-1,3-disulfonate",[Na+].[K+].Oc1ccc2ccccc2c1N=Nc3ccc(cc3)N=Nc4cccc(c4)[S](=O)(=O)Nc5ccc6cc(cc(c6c5)[S]([O-])(=O)=O)[S]([O-])(=O)=O,-1.2096462437
"2,2,4-trimethylhexane-1,6-diamine",CC(CCN)CC(C)(C)CN,0.4781562172999999
sodium octyl sulfate,[Na+].CCCCCCCCO[S]([O-])(=O)=O,0.2872063056
"N-ethyl-4'-{[4-(ethylamino)-2-methylphenyl][4-(ethylimino)-3-methylcyclohexa-2,5-dien-1-ylidene]methyl}-3-methylbiphenyl-2-amine acetate",CCNc1ccc(cc1C)C(c2ccc(NCC)c(C)c2)=C3C=CC(=NCC)C(=C3)C.CC(O)=O,-1.0232212865
(3-dodecanamidopropyl)trimethylazanium methyl sulfate,CCCCCCCCCCCC(=O)NCCC[N+](C)(C)C.CO[S]([O-])(=O)=O,-0.011381165
sodium 2-butyloctyl sulfate,[Na+].CCCCCCC(CCCC)CO[S]([O-])(=O)=O,0.142087324
"pentasodium 7-(2-{4-[(4-{[5-amino-4-sulfonato-2-(2-{4-[2-(sulfonatooxy)ethanesulfonyl]phenyl}diazen-1-yl)phenyl]amino}-6-chloro-1,3,5-triazin-2-yl)amino]-2-(carbamoylamino)phenyl}diazen-1-yl)naphthalene-1,3,6-trisulfonate",[Na+].[Na+].[Na+].[Na+].[Na+].NC(=O)Nc1cc(Nc2nc(Cl)nc(Nc3cc(N)c(cc3N=Nc4ccc(cc4)[S](=O)(=O)CCO[S]([O-])(=O)=O)[S]([O-])(=O)=O)n2)ccc1N=Nc5cc6c(cc(cc6[S]([O-])(=O)=O)[S]([O-])(=O)=O)cc5[S]([O-])(=O)=O,-0.5105575438000001
hexasodium 4-hydroxy-7-[({5-hydroxy-7-sulfonato-6-[(E)-2-{2-sulfonato-4-[(E)-2-(4-sulfonatophenyl)diazen-1-yl]phenyl}diazen-1-yl]naphthalen-2-yl}carbamoyl)amino]-3-[(E)-2-{2-sulfonato-4-[(E)-2-(4-sulfonatophenyl)diazen-1-yl]phenyl}diazen-1-yl]naphthalene-2-sulfonate,[Na+].[Na+].[Na+].[Na+].[Na+].[Na+].[O-][S](=O)(=O)c1ccc(cc1)N=Nc2ccc(N\N=C\3C(=O)c4ccc(NC(=O)Nc5ccc6C(=O)C(=N/Nc7ccc(cc7[S]([O-])(=O)=O)N=Nc8ccc(cc8)[S]([O-])(=O)=O)\C(=Cc6c5)[S]([O-])(=O)=O)cc4C=C3[S]([O-])(=O)=O)c(c2)[S]([O-])(=O)=O,-0.5694985454
lithium dodecyl sulfate,[Li+].CCCCCCCCCCCCO[S]([O-])(=O)=O,0.10896299
sodium decyl sulfate,[Na+].CCCCCCCCCCO[S]([O-])(=O)=O,0.1029880533
"potassium [[N,N'-ethylenebis[N-(carboxymethyl)glycinato]](4-)-N,N',O,O',ON,ON']ferrate(1-)",[K+].[Fe+3].[O-]C(=O)CN(CCN(CC([O-])=O)CC([O-])=O)CC([O-])=O,-0.0920128034
2-[(9Z)-N-methyloctadec-9-enamido]acetic acid; 2-[bis(2-hydroxyethyl)amino]ethan-1-ol,CCCCCCCC\C=C/CCCCCCCC(=O)N(C)CC(O)=O.OCCN(CCO)CCO,0.7757804054999999
2-hydroxyacetic acid,OCC(O)=O,0.5960163257
"N,N-dimethylimidodicarbonimidic diamide hydrochloride",[H+].[Cl-].CN(C)C(=N)N=C(N)N,0.257987497
"2,2',2''-nitrilotriacetonitrile",N#CCN(CC#N)CC#N,-1.6475578342
potassium (Z)-N-methyl-N-(1-oxo-9-octadecenyl)aminoacetate,[K+].CCCCCCCC\C=C/CCCCCCCC(=O)N(C)CC([O-])=O,-0.1215920041
propan-2-yl acetate,CC(C)OC(C)=O,-0.5467680909
2-[(acetyloxy)methyl]prop-2-en-1-yl acetate,CC(=O)OCC(=C)COC(C)=O,-0.7796166704
"O,O-bis(2-methylphenyl) hydrogen dithiophosphate",Cc1ccccc1O[P](S)(=S)Oc2ccccc2C,-1.0605299646
2-[3-(4-propylheptyl)morpholin-4-yl]ethan-1-ol hydrochloride,CCCC(CCC)CCCC1COCCN1CCO,0.9642581623
"Ethanesulfonic acid, 2-(methylamino)-, N-coco acyl derivs., sodium salts",[Na+].CNCC[S]([O-])(=O)=O,0.1906881396
aluminium trititanium dodecachloride,[Al+3].[Cl-].[Cl-].[Cl-].[Cl-].[Cl-].[Cl-].[Cl-].[Ti+4],-0.1112894041
"disodium 1-amino-9,10-dioxo-4-({3-[2-(sulfonatooxy)ethanesulfonyl]phenyl}amino)-9,10-dihydroanthracene-2-sulfonate",[Na+].[Na+].Nc1c2C(=O)c3ccccc3C(=O)c2c(Nc4cccc(c4)[S](=O)(=O)CCO[S]([O-])(=O)=O)cc1[S]([O-])(=O)=O,-0.4545358261
"1,4:3,6-dianhydro-D-glucitol",O[C@@H]1CO[C@@H]2[C@@H](O)CO[C@H]12,1.1774501829
[4-(aminomethyl)phenyl]methanamine,NCc1ccc(CN)cc1,1.1750718055
"(3R,3aR,6S,6aR)-3,6-dimethoxy-hexahydrofuro[3,2-b]furan",COC1COC2C(COC12)OC,1.0599918174
"disodium 2-(1,3-dioxo-2,3-dihydro-1H-inden-2-yl)quinoline-6,8-disulfonate",[Na+].[Na+].[O-][S](=O)(=O)c1cc2ccc(nc2c(c1)[S]([O-])(=O)=O)C3C(=O)c4ccccc4C3=O,-0.3778369537
ammonium 4-(acetoacetylamino)-5-methoxy-2-methylbenzenesulfonate,[NH4+].COc1cc(c(C)cc1NC(=O)CC(C)=O)[S]([O-])(=O)=O,-0.2018762227
"tetrasodium 5-[(E)-2-{2,4-dihydroxy-5-[(E)-2-{4-[(4-nitro-2-sulfonatophenyl)amino]phenyl}diazen-1-yl]phenyl}diazen-1-yl]-4-hydroxy-3-[(E)-2-{4-[(4-nitro-2-sulfonatophenyl)amino]phenyl}diazen-1-yl]naphthalene-2,7-disulfonate",[Na+].[Na+].[Na+].[Na+].Oc1cc(O)c(cc1N=Nc2ccc(Nc3ccc(cc3[S]([O-])(=O)=O)[N+]([O-])=O)cc2)N=Nc4cc(cc5cc(c(N=Nc6ccc(Nc7ccc(cc7[S]([O-])(=O)=O)[N+]([O-])=O)cc6)c(O)c45)[S]([O-])(=O)=O)[S]([O-])(=O)=O,-0.7667514499
disodium 8-(phenylamino)-5-[(E)-2-{4-[(E)-2-(3-sulfonatophenyl)diazen-1-yl]naphthalen-1-yl}diazen-1-yl]naphthalene-1-sulfonate,[Na+].[Na+].[O-][S](=O)(=O)c1cccc(c1)N=Nc2ccc(N=Nc3ccc(Nc4ccccc4)c5c3cccc5[S]([O-])(=O)=O)c6ccccc26,-0.5325397259
bis(3-aminopropyl)(dodecyl)amine,CCCCCCCCCCCCN(CCCN)CCCN,-0.1977113735
"tris(tris(2-hydroxyethyl)azanium) 2-(cyanoamino)-5-{2-[4-({4-[2-(6,8-disulfonatonaphthalen-2-yl)diazen-1-yl]-2-methoxyphenyl}carbamoyl)phenyl]diazen-1-yl}-6-hydroxypyrimidin-4-olate",COc1cc(ccc1NC(=O)c2ccc(cc2)N=Nc3c(O)nc(NC#N)nc3[O-])N=Nc4ccc5cc(cc(c5c4)[S]([O-])(=O)=O)[S]([O-])(=O)=O.OCC[NH+](CCO)CCO.OCC[NH+](CCO)CCO.OCC[NH+](CCO)CCO,-0.8216489824
"sodium 1,4-bis[(8-methylnonyl)oxy]-1,4-dioxobutane-2-sulfonate",[Na+].CC(C)CCCCCCCOC(=O)CC(C(=O)OCCCCCCCC(C)C)[S]([O-])(=O)=O,-0.4691061177
"2,2'-diazene-1,2-diylbis(2-methylpropanimidamide) dihydrochloride",[H+].[Cl-].CC(C)(N=NC(C)(C)C(N)=N)C(N)=N,-0.1451393328
(methoxymethyl)(triphenyl)phosphonium chloride,[Cl-].COC[P+](c1ccccc1)(c2ccccc2)c3ccccc3,0.5063442706
hydrogen tetrachlorogolduide,[NH4+].[Cl-].[Cl-].[Cl-].[Cl-].[Au+3],0.4889459304999999
calcium phosphonate,[Ca++].[O-][PH]([O-])=O,0.9487769325
tetraamminepalladium(2+) diacetate,N.N.N.N.[Pd++].CC([O-])=O.CC([O-])=O,0.5414259625
3-hydroxy-2-(hydroxymethyl)-2-methylpropanal,CC(CO)(CO)C=O,0.9289333763
(2-aminoethyl)({2-[(2-aminoethyl)amino]ethyl})amine; tris(2-aminoethyl)amine,NCCNCCNCCN.NCCN(CCN)CCN,0.5339097655
(2-aminoethyl)[2-({2-[(2-aminoethyl)amino]ethyl}amino)ethyl]amine; bis(2-aminoethyl)({2-[(2-aminoethyl)amino]ethyl})amine,NCCNCCNCCNCCN.NCCNCCN(CCN)CCN,0.4218033311999999
(3-aminopropyl)dimethylamine,CN(C)CCCN,0.9906298514
(3-{[(ethylimino)methylidene]amino}propyl)dimethylamine hydrochloride,[Cl-].CCN(CCC[NH+](C)C)C#N,0.7173642943999999
"(5-ethyl-1,3-dioxan-5-yl)methanol",CCC1(CO)COCOC1,0.8350942171
"9,9-dimethyldecanoic acid",CC(C)(C)CCCCCCCC(O)=O,-2.1113969493
"1,3-dimethyltetrahydropyrimidin-2(1H)-one",CN1CCCN(C)C1=O,0.8921966739
"1,4-diazabicyclo[2.2.2]octan-2-ylmethanol",OCC1CN2CCN1CC2,0.8470942954
"1,4-dimethylpiperazine",CN1CCN(C)CC1,0.9423643206
1-ethoxy-2-(2-methoxyethoxy)ethane,CCOCCOCCOC,0.8291459354999999
1-ethylpyrrolidin-2-one,CCN1CCCC1=O,0.9463070612
1-hydroxypropan-2-yl prop-2-enoate 2-hydroxypropyl prop-2-enoate,OCCCOC(=O)C=C,0.8855791863
1-methyl-1H-imidazole,Cn1ccnc1,1.0856251051
1-{bis[3-(dimethylamino)propyl]amino}propan-2-ol,CC(O)CN(CCCN(C)C)CCCN(C)C,0.6101059749000001
"2,2'-oxydiethanamine",NCCOCCN,0.9823282162
"2,5,8,11,14-pentaoxapentadecane",COCCOCCOCCOCCOC,0.6530976581
"2,5,8,11-tetraoxadodecane",COCCOCCOCCOC,0.7490240663
"2,6-dimethylmorpholine",CC1CNCC(C)O1,0.9386380084
2-hydroxyethan-1-aminium 2-sulfanylacetate,NCCO.OC(=O)CS,0.8147327303
2-methylpentanedioic acid,CC(CCC(O)=O)C(O)=O,0.8352249534999999
2-oxobutanedioic acid,OC(=O)CC(=O)C(O)=O,0.8791925338
"3-(2,3-dihydroxypropoxy)propane-1,2-diol",OCC(O)COCC(O)CO,0.7794395395
"3-(2-chloroethyl)-2-methyl-4H,6H,7H,8H,9H-pyrido[1,2-a]pyrimidin-4-one hydrochloride",Cl.CC1=C(CCCl)C(=O)N2CCCCC2=N1,0.57976692
"3-[3-(hydroxymethyl)-2,5-dioxoimidazolidin-4-yl]-1-[({[3-(hydroxymethyl)-2,5-dioxoimidazolidin-4-yl]carbamoyl}amino)methyl]urea",OCN1C(NC(=O)NCNC(=O)NC2N(CO)C(=O)NC2=O)C(=O)NC1=O,0.4108359647999999
"3-aminopropane-1,2-diol",NCC(O)CO,1.0404339534
3-methyl-1H-pyrazole,Cc1[nH]ncc1,1.0856251051
3-oxobutanamide,CC(=O)CC(N)=O,0.9952273665
"4-(hydroxymethyl)-1,3-dioxolan-2-one",OCC1COC(=O)O1,0.9277942328
4-acetylmorpholine,CC(=O)N1CCOCC1,0.8888753261
"Glycerol, ethoxylated",OCCOCC(COCCO)OCCO,0.6492617384
"N,N,N-trimethylmethanaminium chloride",[Cl-].C[N+](C)(C)C,0.9601894459
"N,N-dimethyl-3-oxobutanamide",CN(C)C(=O)CC(C)=O,0.8888753261
N-[3-(dimethylamino)propyl]formamide,CN(C)CCCNC=O,0.8854190372
N-methylformamide,CNC=O,1.2286477338
ammonium 2-sulfanylacetate,[NH4+].[O-]C(=O)CS,0.96197626
bis(2-[bis(2-hydroxyethyl)amino]ethan-1-ol); dodecanedioic acid,OCCN(CCO)CCO.OCCN(CCO)CCO.OC(=O)CCCCCCCCCCC(O)=O,0.2768038328
bis(3-aminopropyl)(methyl)amine,CN(CCCN)CCCN,0.8378838589000001
caesium(1+) ion chloride,[Cl-].[Cs+],0.7737662420999999
caesium(1+) ion hydroxide,[OH-].[Cs+],0.8241636018
"calcium bis(2,3-dihydroxy-3-[2-hydroxy-5-(hydroxymethyl)-1,3,2-dioxaborolan-4-yl]propanoate)",[Ca++].OCC1OB(O)OC1C(O)C(O)C([O-])=O.OCC2OB(O)OC2C(O)C(O)C([O-])=O,0.3169727848
carbonic acid - 2-aminoethanol (1:2),NCCO.NCCO.OC(O)=O,0.7347292364
dicaesium(1+) ion sulfate,[Cs+].[Cs+].[O-][S]([O-])(=O)=O,0.4414438192
dipotassium adipate,[K+].OC(=O)CCCCC(O)=O,0.7322652276999999
disodium 3-[[ethyl[4-[[4-[(3-sulphonatophenyl)azo]-1-naphthyl]azo]phenyl]amino]methyl]benzenesulphonate,[Na+].[Na+].CCN(Cc1cccc(c1)[S]([O-])(=O)=O)c2ccc(cc2)N=Nc3ccc(N=Nc4cccc(c4)[S]([O-])(=O)=O)c5ccccc35,0.1715437669999999
disodium 6-amino-5-[(E)-2-(4-amino-2-sulfonatophenyl)diazen-1-yl]-4-hydroxynaphthalene-2-sulfonate,[Na+].[Na+].Nc1ccc(NNC2=C3C(=O)C=C(C=C3C=CC2=N)[S]([O-])(=O)=O)c(c1)[S]([O-])(=O)=O,0.3165863989999999
"ethane-1,2-diylbis(oxyethane-2,1-diyl) diacetate",CC(=O)OCCOCCOCCOC(C)=O,0.6303241084000001
ethyl 4-oxopiperidine-1-carboxylate,CCOC(=O)N1CCC(=O)CC1,0.7665063868
ethyl(propyl)amine,CCC[NH2+]CC,1.0546594571
indium(3+) ion trichloride,[Cl-].[Cl-].[Cl-].[In+3],0.6552600369
nadide,NC(=O)c1ccc[n+](c1)C2OC(CO[P]([O-])(=O)O[P](O)(=O)OCC3OC(C(O)C3O)n4cnc5c(N)ncnc45)C(O)C2O,0.1782048937999999
oxepan-2-one,O=C1CCCCCO1,0.9425469123
oxolan-2-one,O=C1CCCO1,1.0650472922
piperidine,C1CCNCC1,1.0698153477
potassium cyanosulfanide,[K+].[S-]C#N,1.0124096986
potassium dibenzyl phosphate,[K+].[O-][P](=O)(OCc1ccccc1)OCc2ccccc2,0.499854127
prop-2-yn-1-ol,OCC#C,1.2513159198
"propane-1,3-diol",OCCCO,1.1186438786
pyridin-3-ylmethanol,OCc1cccnc1,0.9620638041
sodium 2-ethylhexanoate,[Na+].CCCCC(CC)C([O-])=O,0.779379433
"sodium 3-[[4-amino-9,10-dihydro-3-[2-(2-methoxyethoxy)ethoxy]-9,10-dioxo-1-anthryl]amino]-2,4,6-trimethylbenzenesulphonate",[Na+].COCCOCCOc1cc(Nc2c(C)cc(C)c(c2C)[S]([O-])(=O)=O)c3C(=O)c4ccccc4C(=O)c3c1N,0.2391231023999999
sodium 4-(ethoxycarbonyl)phenolate,[Na+].CCOC(=O)c1ccc([O-])cc1,0.7254773119
"sodium O,O-diethyl dithiophosphate",[Na+].CCO[P]([S-])(=S)OCC,0.6814775579000001
sodium bis(2-methylpropyl) sulfanidyl(sulfanylidene)phosphonite,[Na+].CC(C)CO[P]([S-])(=S)OCC(C)C,0.5778568301
sodium cyanosulfanide,[Na+].[S-]C#N,1.0911130427
tert-butyl isobutyl ether,CC(C)COC(C)(C)C,0.8852856245999999
tetramethylazanium 2-carboxybenzoate,C[N+](C)(C)C.OC(=O)c1ccccc1C([O-])=O,0.6211099353
tetramethylazanium hydroxide,[OH-].C[N+](C)(C)C,1.040224269
trisodium 2-hydroxy-5-({5-methyl-4-[(4-nitro-2-sulfonatophenyl)diazenyl]-2-(3-sulfonatopropoxy)phenyl}diazenyl)benzoate,[Na+].[Na+].[Na+].Cc1cc(N\N=C\2C=CC(=O)C(=C2)C([O-])=O)c(OCCC[S]([O-])(=O)=O)cc1N=Nc3ccc(cc3[S]([O-])(=O)=O)[N+]([O-])=O,0.1614506128999999
zinc(2+) ion diphosphate,[Zn++].[O-][P]([O-])([O-])=O.[O-][P]([O-])([O-])=O,0.5928981548
"2,2,6,6-tetramethylpiperidin-4-ol",CC1(C)CC(O)CC(C)(C)N1,-0.1966099864
2-(piperazin-1-yl)ethan-1-amine,NCCN1CCNCC1,-0.1112860428999999
2-(propan-2-yloxy)ethan-1-ol,CC(C)OCCO,-0.0176551044
3-[(2-hydroxyethyl)amino]propanamide,NC(=O)CCNCCO,-0.1211098882
"4-{[4-(diethylamino)phenyl](phenyl)methylidene}-N,N-diethylcyclohexa-2,5-dien-1-iminium acetate",CCN(CC)c1ccc(cc1)[C+](c2ccccc2)c3ccc(cc3)N(CC)CC.CC([O-])=O,-0.6479880176
dimethyl methylphosphonate,CO[P](C)(=O)OC,-0.0936877841
dimethyl phosphonate,CO[P+](=O)OC,-0.0375898256999999
(cyclohexylmethyl)tris(dimethylamino)phosphanium; tetrafluoroboranuide,CN(C)[P+](CC1CCCCC1)(N(C)C)N(C)C.F[B-](F)(F)F,-1.5071434524
"1,1,1,2,2,4,5,5,5-nonafluoro-4-(trifluoromethyl)pentan-3-one",FC(F)(F)C(F)(F)C(=O)C(F)(C(F)(F)F)C(F)(F)F,-1.4997434273
dihydrogen tetrachloropalladiumdiuide,[Cl-].[Cl-].[Cl-].[Cl-].[Pd++].[H+].[H+],-1.3983706153
palladium(2+) ion dinitrate,[Pd++].[O-][N+]([O-])=O.[O-][N+]([O-])=O,-1.3625352504
"tetrasodium 2-[(E)-2-{4-[(E)-2-{4-[(E)-2-[1-hydroxy-6-(phenylamino)-3-sulfonatonaphthalen-2-yl]diazen-1-yl]naphthalen-1-yl}diazen-1-yl]-6-sulfonatonaphthalen-1-yl}diazen-1-yl]benzene-1,4-disulfonate",[Na+].[Na+].[Na+].[Na+].[O-][S](=O)(=O)c1ccc(c(c1)N=Nc2ccc(N=Nc3ccc(N\N=C4/C(=O)C(=Cc5cc(Nc6ccccc6)ccc45)[S]([O-])(=O)=O)c7ccccc37)c8cc(ccc28)[S]([O-])(=O)=O)[S]([O-])(=O)=O,-2.0236334836000003
"N,N-bis(2-hydroxyethyl)undec-10-enamide",OCCN(CCO)C(=O)CCCCCCCCC=C,-2.7615135856
"1,5-dimethyl-1-vinylhex-4-en-1-yl formate",CC(C)=CCCC(C)(OC=O)C=C,-4.0405904263
"N-(2-oxo-2,3-dihydropyrimidin-4-yl)benzamide",O=C1NC(=CC=N1)NC(=O)c2ccccc2,-5.1596802151
"5-amino-2,4,6-triiodoisophthalic acid",Nc1c(I)c(C([O-])=O)c(I)c(C([O-])=O)c1I,-1.569622787
2-amino-2-methylpropan-1-ol; 2-dodecylbenzene-1-sulfonic acid,CCCCCCCCCCCCc1ccccc1[S](O)(=O)=O.CC(C)(N)CO,0.2137915766
(2Z)-4-{2-[2-(2-{[(2Z)-3-carboxyprop-2-enoyl]oxy}ethoxy)ethoxy]ethoxy}-4-oxobut-2-enoic acid,OC(=O)\C=C/C(=O)OCCOCCOCCOC(=O)\C=C/C(O)=O,0.1595325622
"disodium 1,4-bis(4-phenylsulfonyloxybutan-2-ylimino)anthracene-9,10-diolate",[Na+].[Na+].CC(CCO[S](=O)(=O)c1ccccc1)[N-]c2ccc([N-]C(C)CCO[S](=O)(=O)c3ccccc3)c4C(=O)c5ccccc5C(=O)c24,-0.4376461111999999
sodium; chromium(+3) cation; 3-oxido-4-(1-oxido-8-sulfonatonaphthalen-2-yl)diazenylnaphthalene-1-sulfonate,[Na+].[Cr+3].[O-]c1cc(c2ccccc2c1N=Nc3ccc4cccc(c4c3[O-])[S]([O-])(=O)=O)[S]([O-])(=O)=O,-1.171951452
"7-fluoro-1,3-dihydroindol-2-one",Fc1cccc2CC(=O)Nc12,-2.2251369084
"N-[3-(8-methylnonoxy)propyl]propane-1,3-diamine",CC(C)CCCCCCCOCCCNCCCN,-3.2048809276
"disodium (6Z)-4-amino-3-[4-[[4-(2,4-diaminophenyl)diazenylphenyl]carbamoyl]phenyl]diazenyl-5-oxo-6-(phenylhydrazinylidene)naphthalene-2,7-disulfonate",[Na+].[Na+].Nc1ccc(N=Nc2ccc(NC(=O)c3ccc(cc3)N=Nc4c(N)c5C(=O)C(=N/Nc6ccccc6)/C(=Cc5cc4[S]([O-])(=O)=O)[S]([O-])(=O)=O)cc2)c(N)c1,-1.3406827143
dicaesium oxalate,[Ce].[Ce].[O-]C(=O)C([O-])=O,-4.8732958362
"Heptanoic acid, ester with 2-ethyl-2-(hydroxymethyl)-1,3-propanediol pentanoate",CCCCCCC(=O)OCC(CC)(CO)COC(=O)CCCC,-5.982567027000001
"2,2-dioctyl-1,3,2-oxathiastannolan-5-one",CCCCCCCC[Sn]1(CCCCCCCC)OC(=O)CS1,-6.4456261549
"diethyl cyclohexane-1,4-dicarboxylate",CCOC(=O)C1CCC(CC1)C(=O)OCC,-2.2512731137
strontium titanium trioxide,[Sr++].[O-][Ti]([O-])=O,-6.5279992996
4-(3-Chloropropyl)morpholine,ClCCCN1CCOCC1,0.7860892979999999
yttrium trinitrate,[Y+3].[O-][N+]([O-])=O.[O-][N+]([O-])=O.[O-][N+]([O-])=O,0.5453241375
"3-(3-cyano-6-hydroxy-4-methyl-2-oxo-1,2-dihydropyridin-1-yl)propanoic acid",CC1=C(C#N)C(=O)N(CCC(O)=O)C(=C1)O,-1.4436540675999998
"3-(3-carbamoyl-6-hydroxy-4-methyl-2-oxo-1,2-dihydropyridin-1-yl)propanoic acid",CC1=C(C(N)=O)C(=O)N(CCC(O)=O)C(=C1)O,-1.6024488726
(2S)-2-amino-6-octanamidohexanoic acid,CCCCCCCC(=O)NCCCC[C@H](N)C(O)=O,0.0575708237
tetrasodium phosphonato phosphate,[Na+].[Na+].[Na+].[Na+].[O-][P]([O-])(=O)O[P]([O-])([O-])=O,-0.1942710493
trisodium 2-(oxido-oxidooxyphosphoryl)acetate,[Na+].[Na+].[Na+].[O-]O[P]([O-])(=O)CC([O-])=O,0.301076949
Terbinafine hydrochloride,[H+].[Cl-].CN(C\C=C\C#CC(C)(C)C)Cc1cccc2ccccc12,-1.7198600749
"potassium sodium 2-{[4-({4-[(4-amino-9,10-dioxo-3-sulfonato-9,10-dihydroanthracen-1-yl)amino]cyclohexyl}amino)-6-fluoro-1,3,5-triazin-2-yl]amino}benzene-1,4-disulfonate",[Na+].[K+].Nc1c(cc(NC2CCC(CC2)Nc3nc(F)nc(Nc4cc(ccc4[S]([O-])(=O)=O)[S]([O-])(=O)=O)n3)c5C(=O)c6ccccc6C(=O)c15)[S]([O-])(=O)=O,-0.7569465698000001
(2-{[(2E)-2-cyano-2-{[4-(diethylamino)phenyl]methylidene}acetyl]oxy}ethyl)(3-{[(2E)-2-cyano-2-{[4-(diethylamino)phenyl]methylidene}acetyl]oxy}propyl)dimethylazanium chloride,[Cl-].CCN(CC)c1ccc(cc1)/C=C(C#N)/C(=O)OCCC[N+](C)(C)CCOC(=O)\C(=C\c2ccc(cc2)N(CC)CC)C#N,-0.8036189217
"1,1,1-trifluoro-N-(trifluoromethylsulfonyl)methanesulfonamide",FC(F)(F)[S](=O)(=O)N[S](=O)(=O)C(F)(F)F,0.4541441757
sodium; 5-chloro-3-[3-methyl-5-oxido-1-(3-sulfonatophenyl)pyrazol-4-yl]diazenyl-2-oxidobenzenesulfonate; chromium(+3) cation,[Na+].[Cr+3].Cc1nn(c([O-])c1N=Nc2cc(Cl)cc(c2[O-])[S]([O-])(=O)=O)c3cccc(c3)[S]([O-])(=O)=O,-1.1331674849
2-[(Z)-octadec-9-enoxy]ethanol,CCCCCCCC\C=C/CCCCCCCCOCCO,-2.4949028287
3-[3-(benzotriazol-2-yl)-5-tert-butyl-4-hydroxyphenyl]propanoic acid,CC(C)(C)c1cc(CCC(O)=O)cc(n2nc3ccccc3n2)c1O,-5.53070544
"2,3-dihydroxypropyl 12-hydroxyoctadecanoate",CCCCCCC(O)CCCCCCCCCCC(=O)OCC(O)CO,-3.3974324562
"methyl 2-[(4aS)-3,6-bis(diethylamino)-2,7-dimethyl-4aH-xanthen-9-yl]benzoate",CCN(CC)C1=C[C@@H]2Oc3cc(N(CC)CC)c(C)cc3C(=C2C=C1C)c4ccccc4C(=O)OC,-7.6872220822
"1,4-diethyl 2-{[4-({4-[(1,4-diethoxy-1,4-dioxobutan-2-yl)amino]cyclohexyl}methyl)cyclohexyl]amino}butanedioate",CCOC(=O)CC(NC1CCC(CC1)CC2CCC(CC2)NC(CC(=O)OCC)C(=O)OCC)C(=O)OCC,-3.7440777388
"2,2,4,4,6,8,8-heptamethylnonane",CC(CC(C)(C)C)CC(C)(C)CC(C)(C)C,-3.3549684893
N-benzyl-2-acetamido-3-methoxypropanamide,COCC(NC(C)=O)C(=O)NCc1ccccc1,-3.3984573794
1-(1-butoxypropan-2-yloxy)propan-2-ol,CCCCOCC(C)OCC(C)O,-0.6530596225
Nonadecanoic acid,CCCCCCCCCCCCCCCCCCC(O)=O,-3.775990335
2-Ethoxy-2-methylbutane,CCOC(C)(C)CC,-1.4719350107
2-methyl-4-phenylpentan-1-ol,CC(CO)CC(C)c1ccccc1,-2.3469160768
"1-amino-4-hydroxy-2-phenoxy-9,10-dihydroanthracene-9,10-dione",Nc1c(Oc2ccccc2)cc(O)c3C(=O)c4ccccc4C(=O)c13,-4.2192268325