Name,SMILES,Solubility
"octadecane-1,12-diol",CCCCCCC(O)CCCCCCCCCCCO,-5.1560946306
"tetrachlorocyclohexa-2,5-diene-1,4-dione",ClC1=C(Cl)C(=O)C(=C(Cl)C1=O)Cl,-5.0896861436
potassium hexadecyl hydrogen phosphate,[K+].CCCCCCCCCCCCCCCCO[P](O)([O-])=O,-3.2602593536
4-[(2-chloroethyl)(ethyl)amino]benzaldehyde,CCN(CCCl)c1ccc(C=O)cc1,-3.0334483747000003
3-methylbutyl propanoate,CCC(=O)OCCC(C)C,-2.8700736410000003
"(2E)-1-(2,6,6-trimethylcyclohex-1-en-1-yl)but-2-en-1-one",CC(=C)[C@@H]1C[C@@H](CC[C@@]1(C)C=C)C(C)(C)O,-3.0592783722
chromium(3+) ion hydrogen 3-[(2-ethylhexyl)oxy]propan-1-amine (Z)-2-[2-(5-nitro-2-oxido-3-sulfonatophenyl)hydrazin-1-ylidene]-3-oxo-N-phenylbutcarboximidate hydroxide,[OH-].[Cr+3].CCCCC(CC)COCCCN.CC(=O)\C(=N/Nc1cc(cc(c1[O-])[S]([O-])(=O)=O)[N+]([O-])=O)C(=O)[N-]c2ccccc2.[H+],-3.5425873869
oct-1-en-3-ol,CCCCCC(O)C=C,-1.8219317146
hexafluoroprop-1-ene,FC(F)=C(F)C(F)(F)F,-2.8887982833
"(8R,9S,13S,14S,17S)-13-ethyl-3-methoxy-6,7,8,9,11,12,14,15,16,17-decahydrocyclopenta[a]phenanthren-17-ol",CC[C@]12CC[C@H]3[C@@H](CCc4cc(OC)ccc34)[C@@H]1CC[C@@H]2O,-4.875700653
4-[2-(4-hydroxycyclohexyl)propan-2-yl]cyclohexan-1-ol,CC(C)(C1CCC(O)CC1)C2CCC(O)CC2,-3.0976097488
"9-[2-(2-methoxyethoxy)ethoxy]-9-[3-(oxiran-2-ylmethoxy)propyl]-2,5,8,10,13,16-hexaoxa-9-silaheptadecane",COCCOCCO[Si](CCCOCC1CO1)(OCCOCCOC)OCCOCCOC,1.5823133383
disodium 6-hydroxy-5-[(E)-2-(4-sulfonatophenyl)diazen-1-yl]naphthalene-2-sulfonate,[Na+].[Na+].[O-][S](=O)(=O)c1ccc(N\N=C2\C(=O)C=Cc3cc(ccc23)[S]([O-])(=O)=O)cc1,-1.3767469152
"1-chloro-1,1-difluoroethane",CC(F)(F)Cl,-1.7233908536000002
3-(methoxycarbonyl)-5-nitrobenzoic acid,COC(=O)c1cc(cc(c1)[N+]([O-])=O)C(O)=O,-2.0737299237
difluoromethane,FCF,-1.4374417919999998
2-[(1Z)-({2-[(E)-[(2-hydroxyphenyl)methylidene]amino]propyl}imino)methyl]phenol,CC(CN\C=C/1C=CC=CC1=O)N\C=C/2C=CC=CC2=O,-3.172023424
"magnesium(2+) ion bis(2,3-dinonylnaphthalene-1-sulfonate)",[Mg++].CCCCCCCCCc1cc2ccccc2c(c1CCCCCCCCC)[S]([O-])(=O)=O.CCCCCCCCCc3cc4ccccc4c(c3CCCCCCCCC)[S]([O-])(=O)=O,-4.6744729174
4-[4-(propan-2-yloxy)benzenesulfonyl]phenol,CC(C)Oc1ccc(cc1)[S](=O)(=O)c2ccc(O)cc2,-4.1714457851
tetramethylsilane,C[Si](C)(C)C,-3.6533405182
"2,2'-(2,5-dichloro-1,4-phenylene)bis(1H-anthra[1,2-d]imidazole-6,11-dione)",Clc1cc(c(Cl)cc1c2[nH]c3ccc4C(=O)c5ccccc5C(=O)c4c3n2)c6[nH]c7ccc8C(=O)c9ccccc9C(=O)c8c7n6,-4.524775941100001
"3,5,5-trimethylhexyl acetate",CC(CCOC(C)=O)CC(C)(C)C,-3.9891678317
"benzene-1,4-dicarbonyl dichloride",ClC(=O)c1ccc(cc1)C(Cl)=O,-4.0287937791
oxolan-2-ylmethyl 2-methylprop-2-enoate,CC(=C)C(=O)OCC1CCCO1,-0.9524550039
"estr-4-ene-3,17-dione",C[C@]12CC[C@H]3[C@@H](CCC4=CC(=O)CC[C@H]34)[C@@H]1CCC2=O,-3.1565006621
benzyl 2-methylprop-2-enoate,CC(=C)C(=O)OCc1ccccc1,-2.9682045412
diethyl carbonate,CCOC(=O)OCC,-0.7982097075
"(2E)-1-(2,6,6-trimethylcyclohexa-1,3-dien-1-yl)but-2-en-1-one",C/C=C/C(=O)C1=C(C)C=CCC1(C)C,-3.0052489876
"2,4-dichloro-1-nitrobenzene",[O-][N+](=O)c1ccc(Cl)cc1Cl,-3.0091456414
(5S)-2-methyl-5-(prop-1-en-2-yl)cyclohex-2-en-1-one,CC(=C)[C@H]1CC=C(C)C(=O)C1,-1.9026536597
octylphosphonic acid,CCCCCCCC[P](O)(O)=O,-3.0148095518
calcium dimagnesium(2+) ion tetrahydroxide oxidandiide,C[C@]12CCC(=O)C=C1CC[C@@H]3[C@@H]2CC[C@@]4(C)[C@H]3C(O)CC4=O,-2.2130969417
"4-chloro-2,5-dimethoxyaniline",COc1cc(Cl)c(OC)cc1N,-3.0061212915
plumbane,[Pb],-3.0492180227
3-methylbutyl butanoate,CCCC(=O)OCCC(C)C,-2.9328521233
3-(cyclohexylamino)propane-1-sulfonic acid,O[S](=O)(=O)CCCNC1CCCCC1,-3.0802067631
(2E)-2-(phenylmethylidene)heptanal,CCCCC/C(C=O)=C/c1ccccc1,-3.0466584175
1-bromo-3-chloropropane,ClCCCBr,-1.9401514115
"2,2,2-trichloroethane-1,1-diol",OC(O)C(Cl)(Cl)Cl,1.0371672978
"disodium (5E)-5-[2-(2-methoxy-5-methyl-4-sulfonatophenyl)hydrazin-1-ylidene]-6-oxo-5,6-dihydronaphthalene-2-sulfonate",[Na+].[Na+].COc1cc(c(C)cc1N\N=C2\C(=O)C=Cc3cc(ccc23)[S]([O-])(=O)=O)[S]([O-])(=O)=O,-0.4405855136
5-hydroxyisophthalic acid,OC(=O)c1cc(O)cc(c1)C(O)=O,-2.005111367
"disodium 2,2'-ethene-1,2-diylbis{5-[(4-anilino-6-morpholin-4-yl-1,3,5-triazin-2-yl)amino]benzenesulfonate}",[Na+].[Na+].[O-][S](=O)(=O)c1cc(Nc2nc(Nc3ccccc3)nc(n2)N4CCOCC4)ccc1/C=C/c5ccc(Nc6nc(Nc7ccccc7)nc(n6)N8CCOCC8)cc5[S]([O-])(=O)=O,-2.710838239
"1,6-bis(propan-2-yl) hexanedioate",CC(C)OC(=O)CCCCC(=O)OC(C)C,-3.1070289759
"2,2,5-trimethyl-5-pentylcyclopentanone",CCCCCC1(C)CCC(C)(C)C1=O,-4.0165337106
cyclododecanol,OC1CCCCCCCCCCC1,-3.9891177261
"3,3,4,4,5,5,6,6,7,7,8,8,8-tridecafluorooctan-1-ol",OCCC(F)(F)C(F)(F)C(F)(F)C(F)(F)C(F)(F)C(F)(F)F,-4.2870640225
"bis(2,2,6,6-tetramethylpiperidin-4-yl) decanedioate",CC1(C)CNCC(C)(C)C1OC(=O)CCCCCCCCC(=O)OC2C(C)(C)CNCC2(C)C,-4.4077469895
"1,1,5-trimethylhept-6-en-1-yl acetate",CC(CCCC(C)(C)OC(C)=O)C=C,-4.0301641261
"1,2-bis(2-methylpropyl) cyclohexane-1,2-dicarboxylate",CC(C)COC(=O)C1CCCCC1C(=O)OCC(C)C,-4.1912351395
"3,3,5-trimethylcyclohexyl prop-2-enoate",CC1CC(CC(C)(C)C1)OC(=O)C=C,-4.0304470853
cyclohexyl(phenyl)methanone,O=C(C1CCCCC1)c2ccccc2,-4.014709734599999
"tris(1,3-dichloropropan-2-yl) phosphate",ClCC(CCl)O[P](=O)(OC(CCl)CCl)OC(CCl)CCl,-4.3767049743
"1,2,3-trichlorobenzene",Clc1cccc(Cl)c1Cl,-4.003482074
calcium bis(3-nitro-4-{[2-oxo-1-(phenylcarbamoyl)propyl]diazenyl}benzenesulfonate),[Ca++].CC(=O)C(N=Nc1ccc(cc1[N+]([O-])=O)[S]([O-])(=O)=O)C(=O)Nc2ccccc2.CC(=O)C(N=Nc3ccc(cc3[N+]([O-])=O)[S]([O-])(=O)=O)C(=O)Nc4ccccc4,-4.6745621224
"methyl 2,4-dihydroxy-3,6-dimethylbenzoate",COC(=O)c1c(C)cc(O)c(C)c1O,-4.037430925
sodium iodide,[Na+].[I-],1.0777960404
4-(4-amino-3-chlorophenyl)-2-chloroaniline dihydrochloride,[H+].[H+].[Cl-].[Cl-].Nc1ccc(cc1Cl)c2ccc(N)c(Cl)c2,-3.2628695302
4-methyl-1-(propan-2-yl)cyclohex-3-en-1-ol,CC(C)C1(O)CCC(=CC1)C,-1.9409970697
"1-(chloromethyl)-4-fluoro-1,4-diazabicyclo[2.2.2]octane-1,4-diium; bis(tetrafluoroboranuide)",F[B-](F)(F)F.F[B-](F)(F)F.F[N+]12CC[N+](CCl)(CC1)CC2,-0.3038119023
"1,4-dimethoxy-2-nitrobenzene",COc1ccc(OC)c(c1)[N+]([O-])=O,-3.0173250803
3-iodoprop-2-yn-1-yl N-butylcarbamate,CCCCNC(=O)OCC#CI,-3.2033373628
"5-nitro-2,3-dihydro-1H-1,2,4-triazol-3-one",[O-][N+](=O)C1=NC(=O)NN1,-0.8786253202
"5-amino-6-methyl-2,3-dihydro-1H-1,3-benzodiazol-2-one",Cc1cc2NC(=O)Nc2cc1N,-1.9771384819
2-(tert-butylperoxy)-2-methylpropane,CC(C)(C)OOC(C)(C)C,-2.9320403696
ethyl 3-phenylacrylate,CCOC(=O)\C=C\c1ccccc1,-3.0130467638
"sodium 2-[(4-hydroxy-9,10-dioxo-9,10-dihydroanthracen-1-yl)amino]-5-methylbenzene-1-sulfonate",[Na+].Cc1ccc(Nc2ccc(O)c3C(=O)c4ccccc4C(=O)c23)c(c1)[S]([O-])(=O)=O,-2.4023932811
"2,3-dihydro-1,2-benzothiazol-3-one",O=C1NSc2ccccc12,-1.9472895459
2-methyl-1-[4-(methylsulfanyl)phenyl]-2-(morpholin-4-yl)propan-1-one,CSc1ccc(cc1)C(=O)C(C)(C)N2CCOCC2,-4.1933811426
Isolongifolanone,CC1(C)C2CCC3(C2)C1C(=O)CCC3(C)C,-4.0976122125
"1,1-dimethylpropyl 2-(ethylperoxy)hexanoate",CCCCC(CC)C(=O)OOC(C)(C)CC,-4.116871778
"1,1-dimethoxycyclododecane",COC1(CCCCCCCCCCC1)OC,-4.125654351600001
"5-[(5-sulfanylidene-4,5-dihydro-1,3,4-thiadiazol-2-yl)disulfanyl]-2,3-dihydro-1,3,4-thiadiazole-2-thione",S=C1NN=C(SSC2=NNC(=S)S2)S1,-3.2522133148
nonan-2-one,CCCCCCCC(C)=O,-2.9303113789
"1-methyl-2,4-dinitrobenzene; 2-methyl-1,3-dinitrobenzene",Cc1ccc(cc1[N+]([O-])=O)[N+]([O-])=O,-3.040285322
"Phosphorodithioic acid, mixed O,O-bis(iso-Bu and pentyl) esters, zinc salts",[Zn++].CC(C)CO[P]([S-])(=S)OCC(C)C.CC(C)CO[P]([S-])(=S)OCC(C)C,-2.5192483347
4-[(3-hydroxypropyl)amino]-3-nitrophenol,OCCCNc1ccc(O)cc1[N+]([O-])=O,-2.1105897103
ethyl 2-methyl-4-oxo-6-pentylcyclohex-2-ene-1-carboxylate,CCCCCC1CC(=O)C=C(C)C1C(=O)OCC,-3.187166345
"8-[(4-amino-3-nitrophenyl)diazenyl]-7-hydroxy-N,N,N-trimethylnaphthalen-2-aminium chloride",[Cl-].C[N+](C)(C)c1ccc2C=CC(=O)C(=N/Nc3ccc(N)c(c3)[N+]([O-])=O)\c2c1,-1.3972424196000002
"1,2-xylene",Cc1ccccc1C,-2.8191677601
"1,4-xylene",Cc1ccc(C)cc1,-2.8191677601
"2,3,4,5,6,7-hexahydro-1H-isoindole-1,3-dione",O=C1NC(=O)C2=C1CCCC2,-1.974517726
2-phenylethyl 2-methylpropanoate,CC(C)C(=O)OCCc1ccccc1,-3.0797644375
"4-(2,6,6-trimethylcyclohex-1-en-1-yl)but-3-en-2-one",CC(=O)/C=C/C1=C(C)CCCC1(C)C,-3.0798638184
"N,N-dimethyldecan-1-amine",CCCCCCCCCCN(C)C,-4.0452878346
ethyl 3-[(diisopropoxyphosphorothioyl)sulfanyl]propanoate,CCOC(=O)CCS[P](=S)(OC(C)C)OC(C)C,-4.2747784981
4-Tricyclodecylidene butanal,O=CCC\C=C1/CC2CC1C3CCCC23,-4.090187912699999
2-methyloctane-2-thiol,CCCCCCC(C)(C)S,-3.9901601094
"3,7-dimethyloct-6-en-1-yl formate",CC(CCOC=O)CCC=C(C)C,-4.0559608323
O-(4-bromo-2-chlorophenyl) O-ethyl S-propyl thiophosphate,CCCS[P](=O)(OCC)Oc1ccc(Br)cc1Cl,-4.365622838
zinc bis(dinonylnaphthalenesulphonate),[Zn++].CCCCCCCCCc1cc2ccccc2c(c1CCCCCCCCC)[S]([O-])(=O)=O.CCCCCCCCCc3cc4ccccc4c(c3CCCCCCCCC)[S]([O-])(=O)=O,-4.7884242194
2-methyldecanal,CCCCCCCCC(C)C=O,-4.0270844645
"dimethyl 2,5-dioxocyclohexane-1,4-dicarboxylate",COC(=O)C1CC(=O)C(CC1=O)C(=O)OC,-4.1541956574
2-(chloromethyl)oxirane; 4-[2-(4-hydroxyphenyl)propan-2-yl]phenol; 2-methyloxirane,CC1CO1.CC(C)(c2ccc(O)cc2)c3ccc(O)cc3.ClCC4CO4,-4.3744000378
zinc(2+) ion selenite,[Zn++].[O-][Se]([O-])=O,-4.0799654344
"3-methyl-N-nitro-3,6-dihydro-2H-1,3,5-oxadiazin-4-amine",CN1COCN=C1N[N+]([O-])=O,-1.0022923277
"(2R,3R,4S,5R)-2-(6-hydroxy-9H-purin-9-yl)-5-(hydroxymethyl)oxolane-3,4-diol",OCC1OC(C(O)C1O)n2cnc3C(=O)N=CNc23,-1.2298486435
"2,3,6-trimethylphenol",Cc1ccc(C)c(O)c1C,-1.9355008883
"1,3-xylene",Cc1cccc(C)c1,-2.8328690378
2-octanamidoacetic acid,CCCCCCCC(=O)NCC(O)=O,-2.1115375925
"(1,5,5-trimethyl-6-bicyclo[2.2.1]heptanyl) acetate",CC(=O)OC1C(C)(C)C2CCC1(C)C2,-3.8745968837
Dioxosilane,O=[Si]=O,-3.6026675784
(2S)-2-{[(benzyloxy)carbonyl]amino}-2-cyclohexylacetic acid,OC(=O)[C@@H](NC(=O)OCc1ccccc1)C2CCCCC2,-3.2854336032
"(4E)-3-methyl-5-(2,6,6-trimethylcyclohex-1-en-1-yl)penta-1,4-dien-3-ol",CC1=C(/C=C/C(C)(O)C=C)C(C)(C)CCC1,-3.164147933
methyl oct-2-ynoate,CCCCCC#CC(=O)OC,-3.0091327736
manganese(2+) ion diphosphinate,[Mn++].[O-]P=O.[O-]P=O,-0.0813040923
"1,2-dimethyl-3-nitrobenzene",Cc1cccc(c1C)[N+]([O-])=O,-3.0033599893000003
phenyl 2-hydroxybenzoate,Oc1ccccc1C(=O)Oc2ccccc2,-3.1547687559
"3,7-dimethyloct-6-en-1-yl acetate",CC(CCOC(C)=O)CCC=C(C)C,-4.095938730199999
"3,3,4,4,5,5,6,6,6-nonafluorohex-1-ene",FC(F)(F)C(F)(F)C(F)(F)C(F)(F)C=C,-4.1979376007
2-phenylethyl 2-phenylacetate,O=C(Cc1ccccc1)OCCc2ccccc2,-4.1887477927
"2-({2,2-bis[(prop-2-enoyloxy)methyl]butoxy}methyl)-2-[(prop-2-enoyloxy)methyl]butyl prop-2-enoate",CCC(COCC(CC)(COC(=O)C=C)COC(=O)C=C)(COC(=O)C=C)COC(=O)C=C,-4.4927855243
"(2,4,6-trioxo-1,3,5-triazine-1,3,5(2H,4H,6H)-triyl)tri-2,1-ethanediyl triacrylate",C=CC(=O)OCCN1C(=O)N(CCOC(=O)C=C)C(=O)N(CCOC(=O)C=C)C1=O,-2.4514194624
"Octanoic acid, ester with 1,2,3-propanetriol",CCCCCCCC(O)=O.OCC(O)CO,-3.2000007811
4-isopropylbenzonitrile,CC(C)c1ccc(cc1)C#N,-2.9887953027
"1,2-bis(prop-2-en-1-yl) benzene-1,2-dicarboxylate",C=CCOC(=O)c1ccccc1C(=O)OCC=C,-3.2211356868000003
"1,3-diphenylguanidine",NC(Nc1ccccc1)=Nc2ccccc2,-2.1575163863
2-methylpropane-2-thiol,CC(C)(C)S,-1.7878458675
"3,3,5-trimethylcyclohexanol",CC1CC(O)CC(C)(C)C1,-1.9916598479
"N,N-dimethylaniline",CN(C)c1ccccc1,-1.9220736974
"1-chloro-2,5-dimethoxy-4-nitrobenzene",COc1cc(c(OC)cc1Cl)[N+]([O-])=O,-3.1793123652999995
potassium iodide,[K+].[I-],0.935222717
"N-octyl-1-{10-[4-(octylimino)-1,4-dihydropyridin-1-yl]decyl}-1,4-dihydropyridin-4-imine dihydrochloride",[H+].[H+].[Cl-].[Cl-].CCCCCCCCN=C1C=CN(CCCCCCCCCCN2C=CC(C=C2)=NCCCCCCCC)C=C1,-1.6427862658
(2E)-3-phenylprop-2-enal,O=C/C=C/c1ccccc1,-1.9688182578
"1,1,2,2,3,3,4,4,4-nonafluoro-N-(2-hydroxyethyl)-N-methylbutane-1-sulfonamide",CN(CCO)[S](=O)(=O)C(F)(F)C(F)(F)C(F)(F)C(F)(F)F,-3.4036850425
"N-[(8E)-1,5-dimethylbicyclo[3.2.1]octan-8-ylidene]hydroxylamine",CC12CCCC(C)(CC1)C2=NO,-3.0741522071
N-(4-hydroxyphenyl)acetamide,CC(=O)Nc1ccc(O)cc1,-1.0333232127
(e)-But-2-enedioate,[Fe++].[O-]C(=O)\C=C/C([O-])=O,-2.0840678994
"(2E)-1-(2,6,6-trimethylcyclohex-2-en-1-yl)but-2-en-1-one",C/C=C/C(=O)C1C(=CCCC1(C)C)C,-3.1378557654000003
2-methyl-4-nitroaniline,Cc1cc(ccc1N)[N+]([O-])=O,-3.0361524841
nonan-1-ol,CCCCCCCCCO,-3.0130118711
"dipropyl cyclohexane-1,2-dicarboxylate",CCCOC(=O)C1CCCCC1C(=O)OCCC,-3.2626917327
"2-(4-aminophenyl)-6-methyl-1,3-benzothiazole-7-sulfonic acid",Cc1ccc2nc(sc2c1[S](O)(=O)=O)c3ccc(N)cc3,-4.3324994616
"1,4-dioxacycloheptadecane-5,17-dione",O=C1CCCCCCCCCCCC(=O)OCCO1,-4.2616951793
5-chloro-2-(4-chlorophenoxy)phenol,Oc1cc(Cl)ccc1Oc2ccc(Cl)cc2,-4.2393931239
"(3E)-3,7-dimethylocta-1,3,6-triene",CC(C)=CC\C=C(/C)C=C,-3.9729302572
"tert-butyl 3,5,5-trimethylhexaneperoxoate",CC(CC(=O)OOC(C)(C)C)CC(C)(C)C,-4.2100961015
"N~2~-(4,6-diamino-1,3,5-triazin-2-yl)-1,3,5-triazine-2,4,6-triamine",Nc1nc(N)nc(Nc2nc(N)nc(N)n2)n1,-4.2253369782
butyl 2-({[(2-butoxy-2-oxoethyl)sulfanyl]methyl}sulfanyl)acetate,CCCCOC(=O)CSCSCC(=O)OCCCC,-4.3430778582
methyl 1-methyl-4-(propan-2-yl)bicyclo[2.2.2]oct-5-ene-2-carboxylate,COC(=O)C1CC2(CCC1(C)C=C2)C(C)C,-4.2008661255
methylcyclohexane,CC1CCCCC1,-3.8459348013
2-phenylpropane-2-peroxol,CC(C)(OO)c1ccccc1,-1.0393798776
7-oxabicyclo[4.1.0]heptan-3-ylmethyl 7-oxabicyclo[4.1.0]heptane-3-carboxylate,O=C(OCC1CCC2OC2C1)C3CCC4OC4C3,-1.2604846902
dimethyl carbonate,COC(=O)OC,0.1852603514
cyclohexyl 2-methylprop-2-enoate,CC(=C)C(=O)OC1CCCCC1,-3.0885648226
2-phenylethyl propanoate,CCC(=O)OCCc1ccccc1,-3.1174443354
benzyl butanoate,CCCC(=O)OCc1ccccc1,-3.1174443354
2-amino-5-acetamidobenzene-1-sulfonic acid,CC(=O)Nc1ccc(N)c(c1)[S](O)(=O)=O,-1.2318564393
(aminooxy)sulfonic acid,NO[S](O)(=O)=O,0.0752827195
(3Z)-hex-3-en-1-yl methyl carbonate,CC/C=C/CCOC(=O)OC,-3.0698306477
bicyclo[2.2.1]hept-2-ene,C1CC2CC1C=C2,-2.8477212054
"2,4-dimethyl-1-nitrobenzene",Cc1ccc(c(C)c1)[N+]([O-])=O,-3.0555996074
"2-(1,3-benzothiazol-2-ylsulfanyl)acetic acid",OC(=O)CSc1sc2ccccc2n1,-3.2288979848
3-(4-tert-butylphenyl)propanal,CC(C)(C)c1ccc(CCC=O)cc1,-3.1588329057
"3,5-dinitrobenzoic acid",OC(=O)c1cc(cc(c1)[N+]([O-])=O)[N+]([O-])=O,-2.2076497234
"N-(2,2,6,6-tetramethylpiperidin-4-yl)-N-{6-[N-(2,2,6,6-tetramethylpiperidin-4-yl)formamido]hexyl}formamide",CC1(C)CC(CC(C)(C)N1)N(CCCCCCN(C=O)C2CC(C)(C)NC(C)(C)C2)C=O,-1.5399557687999998
aminothiourea,NNC(N)=S,-0.8457609068
"2-(heptan-3-yl)-1,3-dioxolane",CCCCC(CC)C1OCCO1,-3.1195968677
2-methyl-2-[(2-methylbutan-2-yl)peroxy]butane,CCC(C)(C)OOC(C)(C)CC,-4.1004353388
"1-(2,6,6-trimethylcyclohex-1-en-1-yl)pent-1-en-3-one",CCC(=O)/C=C/C1=C(C)CCCC1(C)C,-4.187455475
"2,2,4-trimethyl-1-[(2-methylpropanoyl)oxy]pentan-3-yl 2-methylpropanoate",CC(C)C(OC(=O)C(C)C)C(C)(C)COC(=O)C(C)C,-4.333139569
4-(propan-2-yl)cyclohexyl propanoate,CCC(=O)OC1CCC(CC1)C(C)C,-4.1734842136
trimethoxy(octyl)silane,CCCCCCCC[Si](OC)(OC)OC,-4.2461281993
"3,6,9-triethyl-3,6,9-trimethyl-1,2,4,5,7,8-hexaoxonane",CCC1(C)OOC(C)(CC)OOC(C)(CC)OO1,-4.3048554438
bis-O-(benzylidene)-D-glucitol,O[C@]12COC(O[C@@H]1[C@H]3OC(OC[C@H]3O2)c4ccccc4)c5ccccc5,-4.4379626594
"ethyl 5-oxo-1-phenyl-4,5-dihydro-1H-pyrazole-3-carboxylate",CCOC(=O)C1=NN(C(=O)C1)c2ccccc2,-3.2553454425
oct-7-enal,C=CCCCCCC=O,-1.9972521926
diphenylacetic acid,OC(=O)C(c1ccccc1)c2ccccc2,-3.2230398856
isopropyl chlorocarbonate,CC(C)OC(Cl)=O,-0.9882911293
sodium 2-hydroxybenzoate,[Na+].Oc1ccccc1C([O-])=O,-0.1074921693999999
1-phenylvinyl acetate,CC(=O)OC(=C)c1ccccc1,-2.1135953878
"ethyl 2-(2,4-dimethyl-1,3-dioxolan-2-yl)acetate",CCOC(=O)CC1(C)OCC(C)O1,-2.1798872233
"1,3-dichlorobenzene",Clc1cccc(Cl)c1,-3.0721598007
2-(2-methylphenyl)ethanol,Cc1ccccc1CCO,-1.042878011
"4-chlorobenzene-1,3-diol",Oc1ccc(Cl)c(O)c1,-1.070567643
"6,6-dimethyl-2-methylidenebicyclo[3.1.1]heptan-3-ol",CC1(C)C2CC(O)C(=C)C1C2,-2.09612479
4-(propan-2-yl)cyclohexan-1-ol,CC(C)C1CCC(O)CC1,-2.0680942751
"1,2-dichloro-4-nitrobenzene",[O-][N+](=O)c1ccc(Cl)c(Cl)c1,-3.2005181203
"disodium 2,5-dichloro-4-{3-methyl-5-oxo-4-[(E)-2-(4-sulfonatophenyl)diazen-1-yl]-4,5-dihydro-1H-pyrazol-1-yl}benzene-1-sulfonate",[Na+].[Na+].CC1=NN(C(=O)C1N=Nc2ccc(cc2)[S]([O-])(=O)=O)c3cc(Cl)c(cc3Cl)[S]([O-])(=O)=O,-0.6605427703
ammonium iron(III) citrate,N.[Fe+3].OC(CC([O-])=O)(CC([O-])=O)C([O-])=O,0.6609213970000001
disodium 2-amino-5-[(4-sulphonatophenyl)azo]benzenesulphonate,[Na+].[Na+].Nc1ccc(cc1[S]([O-])(=O)=O)N=Nc2ccc(cc2)[S]([O-])(=O)=O,-0.5243236254
"Glycerol, propoxylated, esters with acrylic acid",C=CC(=O)OCCCOCC(COCCCOC(=O)C=C)OCCCOC(=O)C=C,-2.5527472821
N-{4-[(2-hydroxyethyl)sulfonyl]phenyl}acetamide,CC(=O)Nc1ccc(cc1)[S](=O)(=O)CCO,-2.3069323017
acetylene,C#C,-1.3364263766
propiophenone,CCC(=O)c1ccccc1,-2.0485000681
4-tert-butylbenzaldehyde,CC(C)(C)c1ccc(C=O)cc1,-3.1309552762
6-aminonaphthalene-2-sulfonic acid,Nc1ccc2cc(ccc2c1)[S](O)(=O)=O,-3.2696160575
"1-(2,6,6-trimethylcyclohex-2-en-1-yl)pentan-3-one; prop-2-yn-1-ol",CCC(=O)CCC1C(=CCCC1(C)C)C.OCC#C,-4.3219056885
2-ethylhexyl nitrate,CCCCC(CC)CO[N+]([O-])=O,-4.1466934911
"3-ethoxy-1,1,5-trimethylcyclohexane",CCOC1CC(C)CC(C)(C)C1,-4.1342944341
isooctyl acrylate,CC(C)CCCCCOC(=O)C=C,-4.1706554665
"2-(cyclohexylsulfanyl)-2,3-dihydro-1H-isoindole-1,3-dione",O=C1N(SC2CCCCC2)C(=O)c3ccccc13,-4.3237941723
"N-cyclohexyl-3-[(4-{[3-(cyclohexylsulfamoyl)-2,4,6-trimethylphenyl]amino}-9,10-dioxo-9,10-dihydroanthracen-1-yl)amino]-2,4,6-trimethylbenzene-1-sulfonamide",Cc1cc(C)c(c(C)c1Nc2ccc(Nc3c(C)cc(C)c(c3C)[S](=O)(=O)NC4CCCCC4)c5C(=O)c6ccccc6C(=O)c25)[S](=O)(=O)NC7CCCCC7,-4.8187034651
"(4-tert-butyl-3-hydroxy-2,6-dimethylphenyl)acetonitrile",Cc1cc(c(O)c(C)c1CC#N)C(C)(C)C,-4.2579024627
cadmium(2+) ion sulfanediide,S=[Cd],-4.080623481
"diethyl (3,5-di-tert-butyl-4-hydroxybenzyl)phosphonate",CCO[P](=O)(Cc1cc(c(O)c(c1)C(C)(C)C)C(C)(C)C)OCC,-4.4728088442
diiron trimolybdenum dodecaoxide,[O--].[O--].[O--].[O--].[O--].[O--].[O--].[O--].[O--].[Fe+3].[Fe+3].[Mo].[Mo],-4.5716709895
"zinc(2+) ion bis(2,2-dimethyloctanoate)",[Zn++].CC(C)(C)CC(C)(C)CC([O-])=O.CC(C)(C)CC(C)(C)CC([O-])=O,-3.5342880969
"3,7-dimethyloct-6-enenitrile",CC(CCC=C(C)C)CC#N,-3.104157036
2-nitrophenyl acetate,CC(=O)Oc1ccccc1[N+]([O-])=O,-2.1855239105
"N-(4-amino-2,5-diethoxyphenyl)benzamide",CCOc1cc(NC(=O)c2ccccc2)c(OCC)cc1N,-2.4057571965
"1,3-benzothiazole-2-thiol",S=C1Nc2ccccc2S1,-3.1515048921
1-phenylpyrazolidin-3-one,O=C1CCN(N1)c2ccccc2,-1.1448233011
1-(chloromethyl)-2-methylbenzene,Cc1ccccc1CCl,-3.0813269237
prop-1-en-2-ylbenzene,CC(=C)c1ccccc1,-3.0080823215
2-methoxy-4-(prop-2-en-1-yl)phenol,COc1cc(CC=C)ccc1O,-2.1531779235
"1-Octadecanol, phosphate, potassium salt",[K].CCCCCCCCCCCCCCCCCC.O[P](O)(O)=O,-3.5298030639
potassium hydroxysilanoylolate,[K+].O[Si]([O-])=O,-3.0044671735
sodium hydroxysilanoylolate,O.O.O.O.O.[Na+].[Na+].[O-][Si]([O-])=O,-3.2659206297
"1,3-difluorobenzene",Fc1cccc(F)c1,-2.0003579549
cadmium(2+) ion carbonate,[Cd++].[O-]C([O-])=O,-2.1796827894
(3Z)-hex-3-en-1-yl 2-methylpropanoate,CC\C=C/CCOC(=O)C(C)C,-3.1741873711
"3-({9,10-dioxo-4-[(2,4,6-trimethyl-3-sulfophenyl)amino]-9,10-dihydroanthracen-1-yl}amino)-2,4,6-trimethylbenzene-1-sulfonic acid; hexane-1,6-diamine",Cc1cc(C)c(c(C)c1Nc2ccc(Nc3c(C)cc(C)c(c3C)[S](O)(=O)=O)c4C(=O)c5ccccc5C(=O)c24)[S](O)(=O)=O.NCCCCCCN,-2.8206093768
"1,1,2,3,3-pentamethyl-2,3,4,5,6,7-hexahydro-1H-inden-4-one",CC1C(C)(C)C2=C(C(=O)CCC2)C1(C)C,-3.2653422506
2-(4-{2-[4-(2-hydroxyethoxy)phenyl]propan-2-yl}phenoxy)ethan-1-ol,CC(C)(c1ccc(OCCO)cc1)c2ccc(OCCO)cc2,-3.4517905533999995
bis(propan-2-yl)amine,CC(C)NC(C)C,0.0362422138
"7-{[(2S,3R,4S,5S,6R)-4,5-dihydroxy-6-(hydroxymethyl)-3-{[(2S,3R,4R,5R,6S)-3,4,5-trihydroxy-6-methyloxan-2-yl]oxy}oxan-2-yl]oxy}-5-hydroxy-2-(4-hydroxyphenyl)-3,4-dihydro-2H-1-benzopyran-4-one",C[C@@H]1O[C@@H](O[C@@H]2[C@@H](O)[C@H](O)[C@@H](CO)O[C@H]2Oc3cc(O)c4C(=O)C[C@H](Oc4c3)c5ccc(O)cc5)[C@H](O)[C@H](O)[C@H]1O,-2.7224387153
tin(2+) ion oxalate,[Sn++].[O-]C(=O)C([O-])=O,-2.2740087187
magnesium(2+) ion carbonate,[Mg++].[O-]C([O-])=O,-2.8845018574
"1,2-bis(2-methylpropyl) benzene-1,2-dicarboxylate",CC(C)COC(=O)c1ccccc1C(=O)OCC(C)C,-4.3838902648