Name,SMILES,Solubility
"1-(diethylamino)-3-(2,6-dimethylphenyl)urea",CCN(CC)NC(=O)NC1=C(C)C=CC=C1C,-1.09
di(phenyl)-piperidin-4-ylmethanol,OC(C1=CC=CC=C1)(C1=CC=CC=C1)C1CCNCC1,-1.39
1-nitroacridin-9-amine,C1=CC=C2C(=C1)C(=C3C(=N2)C=CC=C3[N+](=O)[O-])N,-1.84
"N,N'-dicyclohexylethane-1,2-diamine",C1CCC(NCCNC2CCCCC2)CC1,-0.98
1-(trifluoromethyl)acridin-9-amine,NC1=C2C=CC=CC2=NC2=CC=CC(C(F)(F)F)=C21,-2.48
"N,N'-bis(3,5,5-trimethylhexyl)ethane-1,2-diamine",CC(CCNCCNCCC(C)CC(C)(C)C)CC(C)(C)C,-2.24
1-(4-chloronaphthalen-1-yl)-2-piperidin-1-ylethanol,OC(CN1CCCCC1)C1=C2C=CC=CC2=C(Cl)C=C1,-1.55
3-(trifluoromethyl)acridin-9-amine,NC1=C2C=CC(C(F)(F)F)=CC2=NC2=C1C=CC=C2,-2.17
4-(diethylamino)-2-(4-methoxynaphthalen-1-yl)butan-2-ol,CCN(CC)CCC(C)(O)C1=C2C=CC=CC2=C(OC)C=C1,-1.68
"5,5'-(1,2-Ethanediyl)di(2-furancarboximidamide)",N=C(N)C1=CC=C(CCC2=CC=C(C(=N)N)O2)O1,-1.02
2-(1-phenylethylamino)ethyl 4-ethoxybenzoate,CCOC1=CC=C(C(=O)OCCNC(C)C2=CC=CC=C2)C=C1,-1.49
"N,N'-Bis(2-methylphenyl)-2-oxomalonamide",CC1=C(NC(=O)C(=O)C(=O)NC2=C(C)C=CC=C2)C=CC=C1,-2.2
(3Z)-3-hydroxyimino-2-nitroinden-1-one,C1=CC=C2C(=C1)/C(=N/O)/C(C2=O)[N+](=O)[O-],-2.68
4-(4-hydroxy-4-phenylpiperidin-1-yl)-1-phenylbutan-1-one,O=C(CCCN1CCC(O)(C2=CC=CC=C2)CC1)C1=CC=CC=C1,-2.68
4-[4-hydroxy-4-(4-methylphenyl)piperidin-1-yl]-1-phenylbutan-1-one,CC1=CC=C(C2(O)CCN(CCCC(=O)C3=CC=CC=C3)CC2)C=C1,-1.62
"16-(dimethylaminomethyl)-3-hydroxy-10,13-dimethyl-1,2,3,4,7,8,9,11,12,14,15,16-dodecahydrocyclopenta[a]phenanthren-17-one",CN(C)CC1CC2C3CC=C4CC(O)CCC4(C)C3CCC2(C)C1=O,-1.49
4-[4-(4-fluorophenyl)-4-hydroxypiperidin-1-yl]-1-phenylbutan-1-one,O=C(CCCN1CCC(O)(C2=CC=C(F)C=C2)CC1)C1=CC=CC=C1,-2.97
4-[4-(4-chlorophenyl)-4-hydroxypiperidin-1-yl]-1-phenylbutan-1-one,O=C(CCCN1CCC(O)(C2=CC=C(Cl)C=C2)CC1)C1=CC=CC=C1,-3.35
3-amino-5-sulfobenzoic acid,NC1=CC(S(=O)(=O)O)=CC(C(=O)O)=C1,-0.94
1-hydroxy-3-oxoindene-2-sulfonic acid,OC1=C(S(=O)(=O)O)C(=O)C2=C1C=CC=C2,-2.23
di(phenyl)-piperidin-2-ylmethanol,OC(C1=CC=CC=C1)(C1=CC=CC=C1)C1CCCCN1,-1.9
1-[(4-chlorophenyl)-phenylmethyl]-4-[(3-methylphenyl)methyl]piperazine,CC1=CC=CC(CN2CCN(C(C3=CC=CC=C3)C3=CC=C(Cl)C=C3)CC2)=C1,-4.63
1-(4-fluorophenyl)-4-[4-(4-fluorophenyl)-4-hydroxypiperidin-1-yl]butan-1-one,O=C(CCCN1CCC(O)(C2=CC=C(F)C=C2)CC1)C1=CC=C(F)C=C1,-2.83
"3-methyl-9-phenylmethoxy-2,4,4~{a},5,6,7,7~{a},13-octahydro-1~{H}-4,12-methanobenzofuro[3,2-e]isoquinoline",CN1CCC23C4=C5C=CC(OCC6=CC=CC=C6)=C4OC2CCCC3C1C5,-4.22
1-phenylsulfanylethanesulfonic acid,CC(SC1=CC=CC=C1)S(=O)(=O)O,-0.49
2-phenylsulfanylethanesulfonic acid,O=S(=O)(O)CCSC1=CC=CC=C1,-1.53
2-[(4-aminophenyl)sulfonylamino]benzoic acid,NC1=CC=C(S(=O)(=O)NC2=C(C(=O)O)C=CC=C2)C=C1,-0.8
"17-methyl-17-azatetracyclo[7.5.3.0^{1,10}.0^{2,7}]heptadeca-2(7),3,5,11,13-pentaene-3,4-diol",CN1CCC23C=CC=CC2C1CC1=C3C(O)=C(O)C=C1,-1.72
"9-(methoxymethoxy)-3-methyl-2,4,4~{a},5,6,7,7~{a},13-octahydro-1~{H}-4,12-methanobenzofuro[3,2-e]isoquinolin-7-ol",COCOC1=C2OC3C(O)CCC4C5CC(=C2C43CCN5C)C=C1,-1.96
1-(4-chloronaphthalen-1-yl)-2-dimethylaminoethanol,CN(C)CC(O)C1=C2C=CC=CC2=C(Cl)C=C1,-1.22
4-amino-N-pyrimidin-2-ylbenzenesulfonamide,NC1=CC=C(S(=O)(=O)NC2=NC=CC=N2)C=C1,-2.16
(2-diethylamino-1-phenylethyl) 4-nitrobenzoate,CCN(CC)CC(C1=CC=CC=C1)OC(=O)C2=CC=C(C=C2)[N+](=O)[O-],-2.84
"(9-methoxy-3-methyl-2,4,4~{a},7,7~{a},13-hexahydro-1~{H}-4,12-methanobenzofuro[3,2-e]isoquinolin-7-yl) acetate",COC1=C2OC3C(OC(C)=O)C=CC4C5CC(=C2C43CCN5C)C=C1,-1.3
Benzyl phenyl(sulfooxy)acetate,O=C(OCC1=CC=CC=C1)C(OS(=O)(=O)O)C1=CC=CC=C1,-1.5
1-[4-[2-(diaminomethylidene)hydrazinyl]naphthalen-1-yl]iminoguanidine,N=C(N)NN=C1C=CC(=NNC(=N)N)C2=C1C=CC=C2,-3.29
"8-hydroxy-5,7-dinitronaphthalene-2-sulfonic acid",C1=CC2=C(C=C1S(=O)(=O)O)C(=C(C=C2[N+](=O)[O-])[N+](=O)[O-])O,-2.54
"4-Chloro-N,N-dimethylbenzamide",CN(C)C(=O)C1=CC=C(Cl)C=C1,-1.0
4-methoxybenzohydrazide,COC1=CC=C(C(=O)NN)C=C1,-1.15
"N-[(4-methoxyphenyl)methyl]-N',N'-dimethyl-N-pyrimidin-2-ylethane-1,2-diamine",COC1=CC=C(CN(CCN(C)C)C2=NC=CC=N2)C=C1,-2.99
"5,5-diethyl-4,6-dioxo-1H-pyrimidin-2-olate",CCC1(C(=O)NC(=NC1=O)[O-])CC,-0.07
Acetylcodone,COC1=C2OC3C(OC(C)=O)CCC4C5CC(=C2C43CCN5C)C=C1,-1.75
3-Methylbutyl 6-[hydroxy(4-quinolinyl)methyl]quinuclidine-3-carboxylate,CC(C)CCOC(=O)C1CN2CCC1CC2C(O)C1=CC=NC2=C1C=CC=C2,-1.41
4-hydroxy-2-methylbenzenesulfonic acid,CC1=C(S(=O)(=O)O)C=CC(O)=C1,-0.29
"N,N-Dimethyl-4-nitrobenzamide",CN(C)C(=O)C1=CC=C(C=C1)[N+](=O)[O-],-1.27
1-(propan-2-ylamino)-3-(2-prop-2-enylphenoxy)propan-2-ol,C=CCC1=C(OCC(O)CNC(C)C)C=CC=C1,-2.88
"N,N-dimethyl-3-[1-(phenylmethyl)cycloheptyl]oxypropan-1-amine",CN(C)CCCOC1(CC2=CC=CC=C2)CCCCCC1,-1.62
N-Dichloracetyl-DL-serin-methylester,COC(=O)C(CO)NC(=O)C(Cl)Cl,-0.06
"5-(benzoyl)-2,3-dihydro-1H-pyrrolizine-1-carboxylic acid",O=C(C1=CC=CC=C1)C1=CC=C2C(C(=O)O)CCN12,-3.26
"N,N-diethyl-1-phenothiazin-10-ylpropan-2-amine",CCN(CC)C(C)CN1C2=C(C=CC=C2)SC2=C1C=CC=C2,-2.15
"1-[[4-(1,3-benzothiazol-2-yl)phenyl]methyl-ethoxyphosphoryl]pyrrolidin-2-one",CCOP(=O)(CC1=CC=C(C2=NC3=C(C=CC=C3)S2)C=C1)N1CCCC1=O,-3.73
"ethyl 2-[4-(1,3-benzothiazol-2-yl)phenyl]acetate",CCOC(=O)CC1=CC=C(C2=NC3=C(C=CC=C3)S2)C=C1,-4.36
2-[[2-amino-3-(1H-indol-3-yl)propanoyl]amino]-4-methylpentanoic acid,CC(C)CC(NC(=O)C(N)CC1=CNC2=C1C=CC=C2)C(=O)O,-1.76
6-fluoro-1-(1-fluoro-2-methylpropan-2-yl)-4-oxo-7-piperazin-1-ylquinoline-3-carboxylic acid,CC(C)(CF)N1C=C(C(=O)O)C(=O)C2=C1C=C(N1CCNCC1)C(F)=C2,-2.6
"1-cyclopropyl-7-(3,6-diazabicyclo[2.2.1]heptan-6-yl)-6-fluoro-4-oxoquinoline-3-carboxylic acid",O=C(O)C1=CN(C2CC2)C2=C(C=C(F)C(N3CC4CC3CN4)=C2)C1=O,-3.65
Methyl N-[2-({[(2-methyl-2-propanyl)oxy]carbonyl}amino)-4-pentynoyl]glycinate,C#CCC(NC(=O)OC(C)(C)C)C(=O)NCC(=O)OC,-1.45
"O3-ethyl O5-methyl 4-(2,3-dichlorophenyl)-2,6-dimethyl-1,4-dihydropyridine-3,5-dicarboxylate",CCOC(=O)C1=C(C)NC(C)=C(C(=O)OC)C1C1=C(Cl)C(Cl)=CC=C1,-5.68
"2-phenyl-5-(2-phenyl-1,3-dioxolan-4-yl)-1,3-dioxolane-4-carboxylic acid",O=C(O)C1OC(C2=CC=CC=C2)OC1C1COC(C2=CC=CC=C2)O1,-2.45
"N,N-dimethyl-2-[6-methyl-2-(4-methylphenyl)imidazo[3,2-a]pyridin-3-yl]acetamide",CC1=CC=C(C2=C(CC(=O)N(C)C)N3C=C(C)C=CC3=N2)C=C1,-1.3
methyl 2-(6-methoxynaphthalen-2-yl)propanoate,COC(=O)C(C)C1=CC2=CC=C(OC)C=C2C=C1,-4.78
3-(2-oxo-4-propylpyridin-1-yl)propanoic acid,CCCC1=CC(=O)N(CCC(=O)O)C=C1,-2.11
6-(2-oxopyridin-1-yl)hexanoic acid,O=C(O)CCCCCN1C=CC=CC1=O,-0.64
3-ethoxy-4-nitro-1-propan-2-yl-5H-pyrrol-2-one,CCOC1=C(CN(C1=O)C(C)C)[N+](=O)[O-],-4.33
3-(4-heptyl-2-oxopyridin-1-yl)propanoic acid,CCCCCCCC1=CC(=O)N(CCC(=O)O)C=C1,-4.4
"O2-butyl O1-(2-ethylhexyl) benzene-1,2-dicarboxylate",CCCCOC(=O)C1=C(C(=O)OCC(CC)CCCC)C=CC=C1,-7.22
"4-amino-N-(5-methyl-8-propan-2-yl-5,6,7,8-tetrahydroquinazolin-2-yl)benzenesulfonamide",CC1CCC(C(C)C)C2=C1C=NC(NS(=O)(=O)C1=CC=C(N)C=C1)=N2,-4.18
"4-(aminomethyl)-9-methoxyfuro[3,2-g]chromen-7-one",COC1=C2OC=CC2=C(CN)C2=C1OC(=O)C=C2,-0.9
2-phenyl-N-(1-phenylethyl)acetamide,CC(NC(=O)CC1=CC=CC=C1)C1=CC=CC=C1,-3.19
"7-chloro-3'-ethoxy-4,6-dimethoxy-5'-methylspiro[1-benzofuran-2,6'-cyclohex-2-ene]-1',3-dione",CCOC1=CC(=O)C2(OC3=C(C2=O)C(OC)=CC(OC)=C3Cl)C(C)C1,-4.6
"N'-(6-chloro-2-methoxyacridin-9-yl)-N,N-diethylpentane-1,4-diamine",CCN(CC)CCCC(C)NC1=C2C=C(OC)C=CC2=NC2=C1C=CC(Cl)=C2,-2.64
"7-chloro-4,6-dimethoxy-5'-methyl-3'-propoxyspiro[1-benzofuran-2,6'-cyclohex-2-ene]-1',3-dione",CCCOC1=CC(=O)C2(OC3=C(C2=O)C(OC)=CC(OC)=C3Cl)C(C)C1,-5.22
6-fluoro-4-oxo-7-piperazin-1-yl-1-propylquinoline-3-carboxylic acid,CCCN1C=C(C(=O)O)C(=O)C2=C1C=C(N1CCNCC1)C(F)=C2,-3.57
N-{(E)-[5-(Hydroxymethyl)-2-methyl-3-oxo-4(3H)-pyridinylidene]methyl}-L-valine,CC1=NC=C(CO)C(C=NC(C(=O)O)C(C)C)=C1O,-1.6
"3,3-dimethyl-7-oxo-6-[(2-phenylacetyl)amino]-4-thia-1-azabicyclo[3.2.0]heptane-2-carboxylic acid",CC1(C)SC2C(NC(=O)CC3=CC=CC=C3)C(=O)N2C1C(=O)O,-1.63
(4-aminophenyl)sulfonylthiourea,NC(=S)NS(=O)(=O)C1=CC=C(N)C=C1,-2.24
"N,N-dimethyl-2-(1-phenyl-1-pyridin-2-ylethoxy)ethanamine",CN(C)CCOC(C)(C1=CC=CC=C1)C1=CC=CC=N1,-2.82
4-amino-N-(4-methylpyrimidin-2-yl)benzenesulfonamide,CC1=CC=NC(NS(=O)(=O)C2=CC=C(N)C=C2)=N1,-2.63
4-oxo-4-[(4-sulfamoylphenyl)amino]butanoic acid,NS(=O)(=O)C1=CC=C(NC(=O)CCC(=O)O)C=C1,-2.03
(4-ethyl-3-methylquinolin-2-yl)methanamine,CCC1=C2C=CC=CC2=NC(CN)=C1C,-1.48
octylsulfanylmethanimidamide,CCCCCCCCSC(=N)N,0.16
2-[1-(4-chlorobenzoyl)-5-methoxy-2-methylindol-3-yl]acetic acid,COC1=CC2=C(C=C1)N(C(=O)C1=CC=C(Cl)C=C1)C(C)=C2CC(=O)O,-4.77
 Pyrrolidinyl sulfone,O=S(=O)(N1CCCC1)N1CCCC1,-0.44
3-hydroxy-5-(5-oxo-1-cyclopentenyl)pentanoic acid,O=C(O)CC(O)CCC1=CCCC1=O,-0.4
"Octane-1,2-diyldinitrate",CCCCCCC(CO[N+](=O)O)O[N+](=O)O,-4.33
"1-[(4-chlorophenyl)methyl]-5-fluoropyrimidine-2,4-dione",O=C1NC(=O)N(CC2=CC=C(Cl)C=C2)C=C1F,-3.49
"5-fluoro-1-[(4-methoxyphenyl)methyl]pyrimidine-2,4-dione",COC1=CC=C(CN2C=C(F)C(=O)NC2=O)C=C1,-2.75
"4,6-dimethyl-8,9,10,11-tetrahydro-[1]benzoxolo[2,3-h]chromen-2-one",CC1=CC(=O)OC2=C1C=C(C)C1=C2C2=C(CCCC2)O1,-5.09
"4-amino-~{N}-(1,11,11-trimethyl-3,5-diazatricyclo[6.2.1.0^{2,7}]undeca-2,4,6-trien-4-yl)benzenesulfonamide",CC12CCC(C3=C1N=C(NS(=O)(=O)C1=CC=C(N)C=C1)N=C3)C2(C)C,-4.08
2-[4-(2-hydroxyethoxy)phenoxy]ethanol,OCCOC1=CC=C(OCCO)C=C1,-1.23
"2-(1,1-dioxothiazinan-2-yl)acetic acid",O=C(O)CN1CCCCS1(=O)=O,-0.59
"N-hydroxy-7-methyl-1,3,3~{a},4,5,6-hexahydrobenzo[de]isoquinoline-2-carboximidamide",CC1=CC=C2CN(C(N)=NO)CC3CCCC1=C23,-1.2
"7-methoxy-1,3,3~{a},4,5,6-hexahydrobenzo[de]isoquinoline-2-carboximidamide",COC1=C2CCCC3CN(C(=N)N)CC(=C23)C=C1,-1.22
"N-hydroxy-1,3,3~{a},4,5,6-hexahydrobenzo[de]isoquinoline-2-carboximidamide",NC(=NO)N1CC2=CC=CC3=C2C(CCC3)C1,-1.35
"N-(dimethylamino)-1,3-dihydrobenzo[de]isoquinoline-2-carboximidamide",CN(C)NC(=N)N1CC2=CC=CC3=CC=CC(=C32)C1,-1.07
N'-Isopropylidene-1H-benzo[de]isoquinoline-2(3H)-carboximidohydrazide,CC(C)=NNC(=N)N1CC2=CC=CC3=CC=CC(=C32)C1,-2.48
"6-chloro-~{N}'-hydroxy-1,3-dihydrobenzo[de]isoquinoline-2-carboximidamide",NC(=NO)N1CC2=CC=CC3=C(Cl)C=CC(=C23)C1,-2.0
"N-hydroxy-7-methoxy-1,3,3~{a},4,5,6-hexahydrobenzo[de]isoquinoline-2-carboximidamide",COC1=C2CCCC3CN(C(N)=NO)CC(=C23)C=C1,-1.78
"N-hydroxy-5-methoxy-1,3-dihydrobenzo[de]isoquinoline-2-carboximidamide",COC1=CC2=C3C(=C1)C=CC=C3CN(C(N)=NO)C2,-1.21
"3'-butoxy-7-chloro-4,6-dimethoxy-5'-methylspiro[1-benzofuran-2,6'-cyclohex-2-ene]-1',3-dione",CCCCOC1=CC(=O)C2(OC3=C(C2=O)C(OC)=CC(OC)=C3Cl)C(C)C1,-5.4
"N-(4-aminophenyl)-1,3-dihydrobenzo[de]isoquinoline-2-carboximidamide",NC1=CC=C(N=C(N)N2CC3=CC=CC4=CC=CC(=C43)C2)C=C1,-1.83
4-[3-(dimethylaminomethyl)-4-hydroxybenzoyl]thiophene-2-sulfonamide,CN(C)CC1=C(O)C=CC(C(=O)C2=CSC(S(N)(=O)=O)=C2)=C1,-1.54
4-[4-[(2-methylpropylamino)methyl]benzoyl]thiophene-2-sulfonamide,CC(C)CNCC1=CC=C(C(=O)C2=CSC(S(N)(=O)=O)=C2)C=C1,-2.05
4-Nitrobenzohydrazide,C1=CC(=CC=C1C(=O)NN)[N+](=O)[O-],-2.16
4-[4-[(phenylmethylamino)methyl]benzoyl]thiophene-2-sulfonamide,NS(=O)(=O)C1=CC(C(=O)C2=CC=C(CNCC3=CC=CC=C3)C=C2)=CS1,-3.37
"N,N-dimethyl-1,3-dihydrobenzo[de]isoquinoline-2-carboximidamide",CN=C(NC)N1CC2=CC=CC3=CC=CC(=C32)C1,-1.15
"5-fluoro-1-(oxolan-2-yl)pyrimidine-2,4-dione",O=C1NC(=O)N(C2CCCO2)C=C1F,-1.01
"7-chloro-3'-ethoxy-4,6-dimethoxy-5'-methylspiro[1-benzofuran-2,4'-cyclohex-2-ene]-1',3-dione",CCOC1=CC(=O)CC(C)C12OC1=C(C2=O)C(OC)=CC(OC)=C1Cl,-5.0
"1,1-dioxo-2-(2-oxopiperidin-3-yl)-1,2-benzothiazol-3-one",O=C1NCCCC1N1C(=O)C2=C(C=CC=C2)S1(=O)=O,-2.64
"3,4-Methylenedioxycinnamic acid",O=C(O)C=CC1=CC2=C(C=C1)OCO2,-3.19
5-hexoxy-2-[(~{Z})-~{N}-hydroxy-~{C}-methylcarbonimidoyl]phenol,CCCCCCOC1=CC(O)=C(C(C)=NO)C=C1,-4.15
2-(5-nitrofuran-2-yl)-1H-benzimidazole,C1=CC=C2C(=C1)NC(=N2)C3=CC=C(O3)[N+](=O)[O-],-3.89
5-decoxy-2-[(~{Z})-~{N}-hydroxy-~{C}-methylcarbonimidoyl]phenol,CCCCCCCCCCOC1=CC(O)=C(C(C)=NO)C=C1,-4.89
5-decoxy-2-[(~{E})-~{C}-ethyl-~{N}-hydroxycarbonimidoyl]phenol,CCCCCCCCCCOC1=CC(O)=C(C(CC)=NO)C=C1,-4.06
5-hexoxy-2-[(~{E})-~{N}-hydroxy-~{C}-phenylcarbonimidoyl]phenol,CCCCCCOC1=CC(O)=C(C(=NO)C2=CC=CC=C2)C=C1,-3.47
"7-chloro-3',6-diethoxy-4-methoxy-5'-methylspiro[1-benzofuran-2,4'-cyclohex-2-ene]-1',3-dione",CCOC1=CC(=O)CC(C)C12OC1=C(C2=O)C(OC)=CC(OCC)=C1Cl,-4.7
"7-chloro-4,6-dimethoxy-5'-methyl-3'-propoxyspiro[1-benzofuran-2,4'-cyclohex-2-ene]-1',3-dione",CCCOC1=CC(=O)CC(C)C12OC1=C(C2=O)C(OC)=CC(OC)=C1Cl,-4.52
"2-(phenylamino)-3,7-dihydropurin-6-one",O=C1NC(NC2=CC=CC=C2)=NC2=C1N=CN2,-4.12
"3,3-dimethyl-6-[[2-(4-methylphenoxy)acetyl]amino]-7-oxo-4-thia-1-azabicyclo[3.2.0]heptane-2-carboxylic acid",CC1=CC=C(OCC(=O)NC2C(=O)N3C2SC(C)(C)C3C(=O)O)C=C1,-3.15
"7-chloro-4-hydroxy-N-methyl-5-phenyl-3H-1,4-benzodiazepin-4-ium-2-amine",CNC1=NC2=C(C=C(C=C2)Cl)C(=[N+](C1)O)C3=CC=CC=C3,-3.39
4-[[methyl(2-methylbutyl)amino]diazenyl]benzoic acid,CCC(C)CN(C)N=NC1=CC=C(C(=O)O)C=C1,-1.79
"6-HYDROXY-1,3-BENZOTHIAZOLE-2-SULFONAMIDE",NS(=O)(=O)C1=NC2=C(C=C(O)C=C2)S1,-2.5
3-Fluoro-n-hydroxy-n-phenylbenzamide,O=C(C1=CC(F)=CC=C1)N(O)C1=CC=CC=C1,-2.6
N-hydroxy-2-(pyridin-2-ylmethylideneamino)benzamide,O=C(NO)C1=C(N=CC2=CC=CC=N2)C=CC=C1,-3.21
3-Fluoro-n-hydroxy-n-(2-methylphenyl)benzamide,CC1=C(N(O)C(=O)C2=CC(F)=CC=C2)C=CC=C1,-2.53
N-Hydroxy-n-(3-methylphenyl)-3-phenylpropanamide,CC1=CC=CC(N(O)C(=O)CCC2=CC=CC=C2)=C1,-3.41
N-Hydroxy-n-(2-methylphenyl)-3-phenylpropanamide,CC1=C(N(O)C(=O)CCC2=CC=CC=C2)C=CC=C1,-2.79
"3'-butoxy-7-chloro-4,6-dimethoxy-5'-methylspiro[1-benzofuran-2,4'-cyclohex-2-ene]-1',3-dione",CCCCOC1=CC(=O)CC(C)C12OC1=C(C2=O)C(OC)=CC(OC)=C1Cl,-4.7
3-O-Octanoylhexopyranose,CCCCCCCC(=O)OC1C(O)C(O)OC(CO)C1O,-2.63
"1,1-dioxospiro[2,1$l^{6}-benzoxathiole-3,9'-xanthene]-2',7'-diol",O=S1(=O)OC2(C3=C(C=CC(O)=C3)OC3=C2C=C(O)C=C3)C2=C1C=CC=C2,-3.5
"N-Hydroxy-3,5-dimethoxy-n-phenylbenzamide",COC1=CC(OC)=CC(C(=O)N(O)C2=CC=CC=C2)=C1,-3.1
"2,4-Dichloro-n-hydroxy-n-(3-methylphenyl)benzamide",CC1=CC=CC(N(O)C(=O)C2=C(Cl)C=C(Cl)C=C2)=C1,-4.47
"2,4-Dichloro-n-hydroxy-n-(2-methylphenyl)benzamide",CC1=C(N(O)C(=O)C2=C(Cl)C=C(Cl)C=C2)C=CC=C1,-4.17
"N-Hydroxy-3,5-dimethoxy-n-(2-methylphenyl)benzamide",COC1=CC(OC)=CC(C(=O)N(O)C2=C(C)C=CC=C2)=C1,-3.65
"N-Hydroxy-3,5-dimethoxy-n-(3-methylphenyl)benzamide",COC1=CC(OC)=CC(C(=O)N(O)C2=CC(C)=CC=C2)=C1,-3.61
2-[(~{Z})-(2-hydroxynaphthalen-1-yl)methylideneamino]guanidine,N=C(N)NN=CC1=C2C=CC=CC2=CC=C1O,-2.46
(4-acetamidophenyl) dihydrogen phosphate,CC(=O)NC1=CC=C(OP(O)(=O)O)C=C1,0.13
N-Hydroxy-N-methylcycloheptanecarboxamide,CN(O)C(=O)C1CCCCCC1,-1.45
N-Cyclohexyl-N-hydroxycyclopropanecarboxamide,O=C(C1CC1)N(O)C1CCCCC1,-2.04
N-Cyclohexyl-N-hydroxycyclobutanecarboxamide,O=C(C1CCC1)N(O)C1CCCCC1,-2.7
N-Cyclohexyl-N-hydroxycyclopentanecarboxamide,O=C(C1CCCC1)N(O)C1CCCCC1,-3.16
4-(ethyl-methylamino)diazenylbenzoic acid,CCN(C)N=NC1=CC=C(C(=O)O)C=C1,-0.42
4-(methyl-propylamino)diazenylbenzoic acid,CCCN(C)N=NC1=CC=C(C(=O)O)C=C1,-1.43
4-(butyl-methylamino)diazenylbenzoic acid,CCCCN(C)N=NC1=CC=C(C(=O)O)C=C1,-1.81
4-(methyl-pentylamino)diazenylbenzoic acid,CCCCCN(C)N=NC1=CC=C(C(=O)O)C=C1,-2.37
4-(hexyl-methylamino)diazenylbenzoic acid,CCCCCCN(C)N=NC1=CC=C(C(=O)O)C=C1,-2.52
4-(heptyl-methylamino)diazenylbenzoic acid,CCCCCCCN(C)N=NC1=CC=C(C(=O)O)C=C1,-3.39
N-(4-Chlorophenyl)-n-hydroxynaphthalene-2-carboxamide,O=C(C1=CC2=C(C=CC=C2)C=C1)N(O)C1=CC=C(Cl)C=C1,-5.47
4-[3-[(2-methylpropylamino)methyl]benzoyl]thiophene-2-sulfonamide,CC(C)CNCC1=CC=CC(C(=O)C2=CSC(S(N)(=O)=O)=C2)=C1,-2.05
4-[4-(butylaminomethyl)benzoyl]thiophene-2-sulfonamide,CCCCNCC1=CC=C(C(=O)C2=CSC(S(N)(=O)=O)=C2)C=C1,-2.21
4-[3-[(3-methylbutylamino)methyl]benzoyl]thiophene-2-sulfonamide,CC(C)CCNCC1=CC=CC(C(=O)C2=CSC(S(N)(=O)=O)=C2)=C1,-1.5
4-[4-hydroxy-3-[(methyl-(2-methylpropyl)amino)methyl]benzoyl]thiophene-2-sulfonamide,CC(C)CN(C)CC1=C(O)C=CC(C(=O)C2=CSC(S(N)(=O)=O)=C2)=C1,-1.42
4-[4-[(tert-butylamino)methyl]phenyl]sulfonylthiophene-2-sulfonamide,CC(C)(C)NCC1=CC=C(S(=O)(=O)C2=CSC(S(N)(=O)=O)=C2)C=C1,-1.98
4-[4-(butylaminomethyl)phenyl]sulfonylthiophene-2-sulfonamide,CCCCNCC1=CC=C(S(=O)(=O)C2=CSC(S(N)(=O)=O)=C2)C=C1,-1.68
4-[4-(morpholin-4-ylmethyl)benzoyl]thiophene-2-sulfonamide,NS(=O)(=O)C1=CC(C(=O)C2=CC=C(CN3CCOCC3)C=C2)=CS1,-1.52
4-[3-[(propan-2-ylamino)methyl]phenyl]sulfonylthiophene-2-sulfonamide,CC(C)NCC1=CC=CC(S(=O)(=O)C2=CSC(S(N)(=O)=O)=C2)=C1,-1.56
4-[3-[(butan-2-ylamino)methyl]phenyl]sulfonylthiophene-2-sulfonamide,CCC(C)NCC1=CC=CC(S(=O)(=O)C2=CSC(S(N)(=O)=O)=C2)=C1,-1.33
4-[3-(morpholin-4-ylmethyl)benzoyl]thiophene-2-sulfonamide,NS(=O)(=O)C1=CC(C(=O)C2=CC(CN3CCOCC3)=CC=C2)=CS1,-1.92
"3-[[2-[2-(3,4-dimethoxyphenyl)ethylamino]-2-oxoethyl]amino]-N-methylbenzamide",CNC(=O)C1=CC=CC(NCC(=O)NCCC2=CC(OC)=C(OC)C=C2)=C1,-1.85
"5-(ethylaminomethyl)thieno[3,2-d]furan-2-sulfonamide",CCNCC1=CC2=C(OC(S(N)(=O)=O)=C2)S1,-1.04
"5-[(2-methylpropylamino)methyl]thieno[3,2-d]furan-2-sulfonamide",CC(C)CNCC1=CC2=C(OC(S(N)(=O)=O)=C2)S1,-1.33
"5-[(2-ethoxyethylamino)methyl]thieno[3,2-d]furan-2-sulfonamide",CCOCCNCC1=CC2=C(OC(S(N)(=O)=O)=C2)S1,-0.92
"3-[[2-[2-(3,4-dimethoxyphenyl)ethylamino]-2-oxoethyl]amino]benzamide",COC1=C(OC)C=C(CCNC(=O)CNC2=CC(C(N)=O)=CC=C2)C=C1,-2.69
"[2,5-dioxo-4,4-di(phenyl)imidazolidin-1-yl]methyl dihydrogen phosphate",OP(=O)(O)OCN1C(=O)NC(C2=CC=CC=C2)(C2=CC=CC=C2)C1=O,-0.43
"5-[(pyridin-2-ylmethylamino)methyl]thieno[3,2-d]furan-2-sulfonamide",NS(=O)(=O)C1=CC2=C(O1)SC(CNCC1=CC=CC=N1)=C2,-1.33
[2-(2-hydroxyethyl-methylamino)-2-oxoethyl] benzoate,CN(CCO)C(=O)COC(=O)C1=CC=CC=C1,-1.09
"5-fluoro-1-[(4-methylphenyl)methyl]pyrimidine-2,4-dione",CC1=CC=C(CN2C=C(F)C(=O)NC2=O)C=C1,-2.92
"1-[(2,4-dichlorophenyl)methyl]-5-fluoropyrimidine-2,4-dione",O=C1NC(=O)N(CC2=C(Cl)C=C(Cl)C=C2)C=C1F,-3.94
N-[4-(acridin-9-ylamino)-3-methylaminophenyl]methanesulfonamide,CNC1=C(NC2=C3C=CC=CC3=NC3=C2C=CC=C3)C=CC(NS(C)(=O)=O)=C1,-2.94
2-[(2-aminoacetyl)amino]-N-[4-chloro-2-(2-chlorobenzoyl)phenyl]-N-methylacetamide,CN(C(=O)CNC(=O)CN)C1=C(C(=O)C2=C(Cl)C=CC=C2)C=C(Cl)C=C1,-2.33
2-amino-2-(4-hydroxyphenyl)acetic acid,NC(C(=O)O)C1=CC=C(O)C=C1,-0.53
"4-hydroxy-7,7-dioxo-5,6-dihydro-4H-thieno[5,4-b]thiopyran-2-sulfonamide",NS(=O)(=O)C1=CC2=C(S1)S(=O)(=O)CCC2O,-1.65
"1,2-di(phenyl)ethane-1,2-dione",O=C(C(=O)C1=CC=CC=C1)C1=CC=CC=C1,-2.8
2-acetamido-4-methylpentanoic acid,CC(=O)NC(CC(C)C)C(=O)O,-1.13
2-amino-3-(2-amino-3-hydroxy-3-oxopropyl)disulfanylpropanoic acid,NC(CSSCC(N)C(=O)O)C(=O)O,-3.31
1-(2-methoxyphenyl)-N-[1-(2-methoxyphenyl)propan-2-yl]propan-2-amine,COC1=C(CC(C)NC(C)CC2=C(OC)C=CC=C2)C=CC=C1,-2.0
"Morphinan-6-alpha-ol, 3-(benzyloxy)-7,8-didehydro-4,5-alpha-epoxy-17-methyl-",CN1CCC23C4=C5C=CC(OCC6=CC=CC=C6)=C4OC2C(O)C=CC3C1C5,-2.22
3-o-Ethylmorphine,CCOC1=C2OC3C(O)C=CC4C5CC(=C2C43CCN5C)C=C1,-0.82
4-chloro-N-(4-chlorophenyl)sulfonylbenzenesulfonamide,O=S(=O)(NS(=O)(=O)C1=CC=C(Cl)C=C1)C1=CC=C(Cl)C=C1,-2.48
"4-amino-N-(4-methyl-1,3-thiazol-2-yl)benzenesulfonamide",CC1=CSC(NS(=O)(=O)C2=CC=C(N)C=C2)=N1,-2.91
"(7,7-dimethyl-2-oxo-1-bicyclo[2.2.1]heptanyl)methanesulfonic acid",CC1(C)C2CCC1(CS(=O)(=O)O)C(=O)C2,-0.3
1-(3-methoxyphenyl)-~{N}-[1-(2-methoxyphenyl)propan-2-yl]propan-2-amine,COC1=CC=CC(CC(C)NC(C)CC2=C(OC)C=CC=C2)=C1,-3.0
Dihydroneopine,COC1=C2OC3C(O)CCC4C5CC(=C2C43CCN5C)C=C1,-1.0
2-(ethylsulfanylcarbothioylamino)butanedioic acid,CCSC(=S)NC(CC(=O)O)C(=O)O,-1.38
"2,5-dihydroxy-2-methyl-5-propan-2-ylhexanedioic acid",CC(C)C(O)(CCC(C)(O)C(=O)O)C(=O)O,-1.69
2-(1-hydroxy-1-oxopropan-2-yl)sulfanylcarbothioylsulfanylpropanoic acid,CC(SC(=S)SC(C)C(=O)O)C(=O)O,-1.41
4-(Carboxysulfanyl)-3-phenylbutanoic acid,O=C(O)CC(CSC(=O)O)C1=CC=CC=C1,-1.24
2-(2-methyl-5-nitroimidazol-1-yl)ethanol,CC1=NC=C(N1CCO)[N+](=O)[O-],-1.21
"6-chloro-N'-ethyl-N-propan-2-yl-1,3,5-triazine-2,4-diamine",CCNC1=NC(Cl)=NC(NC(C)C)=N1,-3.76
Benzil dioxime,ON=C(C1=CC=CC=C1)C(=NO)C1=CC=CC=C1,-5.9
7-(3-aminoazetidin-1-yl)-1-cyclopropyl-6-fluoro-4-oxoquinoline-3-carboxylic acid,NC1CN(C2=CC3=C(C=C2F)C(=O)C(C(=O)O)=CN3C2CC2)C1,-5.32
1-cyclopropyl-6-fluoro-7-(3-methylaminoazetidin-1-yl)-4-oxoquinoline-3-carboxylic acid,CNC1CN(C2=CC3=C(C=C2F)C(=O)C(C(=O)O)=CN3C2CC2)C1,-5.41
7-(3-amino-3-methylazetidin-1-yl)-1-cyclopropyl-6-fluoro-4-oxoquinoline-3-carboxylic acid,CC1(N)CN(C2=CC3=C(C=C2F)C(=O)C(C(=O)O)=CN3C2CC2)C1,-5.62