Name,SMILES,Solubility
"2-hexoxypropane-1,3-diol",CCCCCCOC(CO)CO,-1.0558122117
1-ethyl-1-methylpyrrolidin-1-ium bromide,[Br-].CC[N+]1(C)CCCC1,1.4101871429
potassium benzoate,[K+].[O-]C(=O)c1ccccc1,0.4872673501
1-benzyl-3-carbamoylpyridin-1-ium chloride,[Cl-].NC(=O)c1ccc[n+](Cc2ccccc2)c1,0.2936103731
"4-[(3S)-3-ethenyl-3,7-dimethylocta-1,6-dienyl]phenol",CC(C)=CCC[C@@](C)(C=C)\C=C\c1ccc(O)cc1,-6.3370173812
sodium oxidooxy-oxoborane hydrate,O.[Na+].[O-]OB=O,-0.8231002009999999
(3-methoxy-3-methylbutyl) acetate,COC(C)(C)CCOC(C)=O,-0.4390291979
Chromic phosphate,[Cr+3].[O-][P]([O-])([O-])=O,0.4859956397
"disodium 2-amino-4,6-dinitrophenol 4-nitroaniline 8-{2-[(1E)-2-oxido-4-oxocyclohexa-2,5-dien-1-ylidene]hydrazin-1-yl}-3,6-disulfonaphthalen-1-olate iron",[Na+].[Na+].[Fe].Nc1ccc(cc1)[N+]([O-])=O.Nc2cc(cc(c2O)[N+]([O-])=O)[N+]([O-])=O.OC/3=CC(=O)C=CC3=N/Nc4cc(cc5cc(cc(O)c45)[S]([O-])(=O)=O)[S]([O-])(=O)=O,-1.3075465248
"octasodium 2,2'-{1,4-phenylenebis[imino(6-chloro-1,3,5-triazine-4,2-diyl)imino(8-hydroxy-3,6-disulfonatonaphthalene-7,1-diyl)diazene-2,1-diyl]}dinaphthalene-1,5-disulfonate",[Na+].[Na+].[Na+].[Na+].[Na+].[Na+].[Na+].[Na+].Oc1c(Nc2nc(Cl)nc(Nc3ccc(Nc4nc(Cl)nc(Nc5c(O)c6c(cc(cc6N=Nc7ccc8c(cccc8[S]([O-])(=O)=O)c7[S]([O-])(=O)=O)[S]([O-])(=O)=O)cc5[S]([O-])(=O)=O)n4)cc3)n2)c(cc9cc(cc(N=Nc%10ccc%11c(cccc%11[S]([O-])(=O)=O)c%10[S]([O-])(=O)=O)c19)[S]([O-])(=O)=O)[S]([O-])(=O)=O,-0.634868411
benzyldimethyltetradecylazanium chloride,[Cl-].CCCCCCCCCCCCCC[N+](C)(C)Cc1ccccc1,-0.9531217854
nickel(2+) difluoride,[F-].[F-].[Ni++],-0.3833170773
"(2,5-dioxoimidazolidin-4-yl)urea",NC(=O)NC1NC(=O)NC1=O,-1.5087824856999998
disodium 7-benzamido-4-hydroxy-3-[(E)-2-{4-[(E)-2-(4-sulfonatophenyl)diazen-1-yl]phenyl}diazen-1-yl]naphthalene-2-sulfonate,[Na+].[Na+].[O-][S](=O)(=O)c1ccc(cc1)N=Nc2ccc(N\N=C\3C(=O)c4ccc(NC(=O)c5ccccc5)cc4C=C3[S]([O-])(=O)=O)cc2,-2.1566764476
sodium 7-amino-8-[(E)-2-[2-(benzenesulfonyl)phenyl]diazen-1-yl]-3-sulfonaphthalen-1-olate,[Na+].[O-][S](=O)(=O)C1=CC(=O)C2=C(NNc3ccccc3[S](=O)(=O)c4ccccc4)C(=N)C=CC2=C1,-2.0888316761000003
bis(tetrakis(hydroxymethyl)phosphanium) sulfate,OC[P+](CO)(CO)CO.OC[P+](CO)(CO)CO.[O-][S]([O-])(=O)=O,1.9675126996
oxetan-2-one,O=C1CCO1,0.7104893861
potassium {[(3-methylbutyl)sulfanyl]carbonyl}sulfanide,[K+].CC(C)CCOC([S-])=S,0.2378897232
N-phenyl-N-(piperidin-4-yl)propanamide,CCC(=O)N(C1CC[NH2+]CC1)c2ccccc2,-0.8352255084
sodium 2-(morpholin-4-yl)ethane-1-sulfonate,[Na+].[O-][S](=O)(=O)CCN1CCOCC1,0.1885297454
"1,3-dihydroxypropan-2-yl octanoate 2,3-dihydroxypropyl octanoate",CCCCCCCC(=O)OCC(O)CO,0.1794741305
trisodium bis[2-hydroxy-5-nitro-3-[[2-oxo-1-[(phenylamino)carbonyl]propyl]azo]benzenesulphonato(3-)]cobaltate(3-),[Na+].[Na+].[Na+].[Co+3].CC(=O)\C(=N/Nc1cc(cc(c1[O-])[S]([O-])(=O)=O)[N+]([O-])=O)C(=O)[N-]c2ccccc2.CC(=O)\C(=N/Nc3cc(cc(c3[O-])[S]([O-])(=O)=O)[N+]([O-])=O)C(=O)[N-]c4ccccc4,-0.4747040271
"disodium 4-amino-5-hydroxy-3-[(E)-2-(4-nitrophenyl)diazen-1-yl]-6-[(E)-2-phenyldiazen-1-yl]naphthalene-2,7-disulfonate",[Na+].[Na+].Nc1c(N=Nc2ccc(cc2)[N+]([O-])=O)c(cc3C=C(\C(=N/Nc4ccccc4)C(=O)c13)[S]([O-])(=O)=O)[S]([O-])(=O)=O,-1.2800595004000002
lithium(1+) ion benzoate,[Li+].[O-]C(=O)c1ccccc1,0.3909106219
"3-[(1R,3R)-3-[(dimethylcarbamoylamino)methyl]-3,5,5-trimethylcyclohexyl]-1,1-dimethylurea",CN(C)C(=O)NC[C@@]1(C)C[C@@H](CC(C)(C)C1)NC(=O)N(C)C,-1.8938187529
disodium 7-[(E)-2-(6-amino-1-hydroxy-3-sulfonatonaphthalen-2-yl)diazen-1-yl]-4-hydroxy-3-[(E)-2-phenyldiazen-1-yl]naphthalene-2-sulfonate,[Na+].[Na+].Nc1ccc2C(=O)C(=N/Nc3ccc4C(=O)C(=N/Nc5ccccc5)\C(=Cc4c3)[S]([O-])(=O)=O)/C(=Cc2c1)[S]([O-])(=O)=O,-2.2101305551
2-[(carbamoylmethyl)(carboxymethyl)amino]acetic acid,NC(=O)C[NH+](CC([O-])=O)CC([O-])=O,-1.7635818574000002
calcium cyanoazanediide,[Ca++].NC#N,-0.4460963217
3-[(2-carboxyethyl)sulfanyl]propanoic acid,OC(=O)CCSCCC(O)=O,-0.7991431977
N-Butylphosphorothioic triamide,CCCCN[P](N)(N)=S,-0.7730339165000001
"trisodium 5-({4-chloro-6-[(2-methylphenyl)amino]-1,3,5-triazin-2-yl}amino)-4-hydroxy-3-[(E)-2-(2-sulfonatophenyl)diazen-1-yl]naphthalene-2,7-disulfonate",[Na+].[Na+].[Na+].Cc1ccccc1Nc2nc(Cl)nc(Nc3cc(cc4C=C(/C(=N/Nc5ccccc5[S]([O-])(=O)=O)C(=O)c34)[S]([O-])(=O)=O)[S]([O-])(=O)=O)n2,-0.4572403676
hydrazine dihydrochloride,[H+].[Cl-].NN,1.5956288145
sodium 4-[(E)-2-(2-hydroxynaphthalen-1-yl)diazen-1-yl]benzene-1-sulfonate,[Na+].Oc1ccc2ccccc2c1N=Nc3ccc(cc3)[S]([O-])(=O)=O,-1.1158578961
C.i. Direct blue 80,[Na+].[Na+].[Na+].[Na+].[Cu++].[Cu++].[O-]c1cc(ccc1N=Nc2c([O-])c(cc3cc(ccc23)[S]([O-])(=O)=O)[S]([O-])(=O)=O)c4ccc(N=Nc5c([O-])c(cc6cc(ccc56)[S]([O-])(=O)=O)[S]([O-])(=O)=O)c([O-])c4,-1.6074287478
"4-{2-[(2E)-5-[bis(propan-2-yl)amino]-3-methyl-2,3-dihydro-1,3,4-thiadiazol-2-ylidene]hydrazin-1-ylidene}-N,N-dimethylcyclohexa-2,5-dien-1-iminium methyl sulfate",CO[S]([O-])(=O)=O.CC(C)N(C(C)C)c1sc(N=Nc2ccc(cc2)N(C)C)[n+](C)n1,-1.2596984381
disodium 8-(phenylamino)-5-[[4-[(5-sulphonatonaphthyl)azo]naphthyl]azo]naphthalenesulphonate,[Na+].[Na+].[O-][S](=O)(=O)c1cccc2c(cccc12)N=Nc3ccc(N=Nc4ccc(Nc5ccccc5)c6c4cccc6[S]([O-])(=O)=O)c7ccccc37,-1.4631185388
"lithium(1+) ion 4-[(E)-2-(5-amino-3-methyl-1-phenyl-1H-pyrazol-4-yl)diazen-1-yl]-2,5-dichlorobenzene-1-sulfonate",[Li+].CC1=NN(C(=N)/C1=N/Nc2cc(Cl)c(cc2Cl)[S]([O-])(=O)=O)c3ccccc3,-1.2370685249
4-methyl-2-(2-methylpropyl)oxan-4-ol,CC(C)CC1CC(C)(O)CCO1,2.1376816201
disodium 8-[[4-[[(4-methylphenyl)sulphonyl]oxy]phenyl]azo]-5-[[4-[(4-nitro-2-sulphonatophenyl)amino]phenyl]azo]naphthalene-1-sulphonate,[Na+].[Na+].Cc1ccc(cc1)[S](=O)(=O)Oc2ccc(cc2)N=Nc3ccc(N=Nc4ccc(Nc5ccc(cc5[S]([O-])(=O)=O)[N+]([O-])=O)cc4)c6ccc(cc36)[S]([O-])(=O)=O,-1.5709847474
"2,4,6-trimethylbenzene-1,3-diamine",Cc1cc(C)c(N)c(C)c1N,-0.8207163555
"disodium 4-amino-3,6-bis[(E)-2-{4-[(E)-2-(2,4-diaminophenyl)diazen-1-yl]phenyl}diazen-1-yl]-5-hydroxynaphthalene-2,7-disulfonate",[Na+].[Na+].Nc1ccc(N=Nc2ccc(N\N=C\3C(=O)c4c(N)c(N=Nc5ccc(cc5)N=Nc6ccc(N)cc6N)c(cc4C=C3[S]([O-])(=O)=O)[S]([O-])(=O)=O)cc2)c(N)c1,-1.5687181444
tempone,CC1(C)CC(=O)CC(C)(C)N1[O],0.1034125496
"disodium 4-amino-3-[2-(4-{4-[2-(2,4-diaminophenyl)diazen-1-yl]benzenesulfonamido}phenyl)diazen-1-yl]-5-hydroxy-6-(2-phenyldiazen-1-yl)naphthalene-2,7-disulfonate",[Na+].[Na+].Nc1ccc(N=Nc2ccc(cc2)[S](=O)(=O)Nc3ccc(cc3)N=Nc4c(N)c5c(O)c(N=Nc6ccccc6)c(cc5cc4[S]([O-])(=O)=O)[S]([O-])(=O)=O)c(N)c1,-0.6029811942000001
4-methylphenol,Cc1ccc(O)cc1,-0.7015479053
"sodium 1-amino-4-(cyclohexylamino)-9,10-dioxo-9,10-dihydroanthracene-2-sulfonate",[Na+].Nc1c(cc(NC2CCCCC2)c3C(=O)c4ccccc4C(=O)c13)[S]([O-])(=O)=O,-1.2963650985
cytidine 3'-(dihydrogen phosphate),NC1=NC(=O)N(C=C1)C2OC(CO[P](O)(O)=O)C(O)C2O,-1.1987753523
"sodium 5-[(2,4-dinitrophenyl)amino]-2-(phenylamino)benzene-1-sulfonate",[Na+].[O-][N+](=O)c1ccc(Nc2ccc(Nc3ccccc3)c(c2)[S]([O-])(=O)=O)c(c1)[N+]([O-])=O,-2.1991373631
methyl 2-aminobenzoate,COC(=O)c1ccccc1N,-1.7338470451
"sodium 1-amino-9,10-dioxo-4-(phenylamino)-9,10-dihydroanthracene-2-sulfonate",[Na+].Nc1c(cc(Nc2ccccc2)c3C(=O)c4ccccc4C(=O)c13)[S]([O-])(=O)=O,-2.1738960877
"sodium 4-chloro-3-{4-[(E)-2-[5-chloro-2-(2-chlorophenoxy)phenyl]diazen-1-yl]-3-methyl-5-oxo-4,5-dihydro-1H-pyrazol-1-yl}benzene-1-sulfonate",[Na+].CC1=NN(C(=O)C1N=Nc2cc(Cl)ccc2Oc3ccccc3Cl)c4cc(ccc4Cl)[S]([O-])(=O)=O,-2.3162215849
N-ethyl(propan-2-yloxy)carbothioamide,CCNC(=S)OC(C)C,-1.7447887835
"ethyl 3,4-dihydroxybenzoate",CCOC(=O)c1ccc(O)c(O)c1,-1.8556550616
"benzene-1,3,5-tricarboxylic acid",OC(=O)c1cc(cc(c1)C(O)=O)C(O)=O,-1.9422995529
"3-(3,4-Dimethoxyphenyl)propanenitrile",COc1ccc(CCC#N)cc1OC,-1.9013447833
"sodium 2,5-dichloro-4-[4-[[2-[(ethylphenylamino)sulphonyl]phenyl]azo]-4,5-dihydro-3-methyl-5-oxo-1H-pyrazol-1-yl]benzenesulphonate",[Na+].CC1=NN(C(=O)C1N=Nc2cccc(c2)[S](=O)(=O)NCCc3ccccc3)c4cc(Cl)c(cc4Cl)[S]([O-])(=O)=O,-2.4299809947
"disodium 3-[(E)-2-[2,4-bis(2-methylphenoxy)phenyl]diazen-1-yl]-4-hydroxy-5-(4-methylbenzenesulfonamido)naphthalene-2,7-disulfonate",[Na+].[Na+].Cc1ccc(cc1)[S](=O)(=O)Nc2cc(cc3C=C(C(=N/Nc4ccc(Oc5ccccc5C)cc4Oc6ccccc6C)\C(=O)c23)[S]([O-])(=O)=O)[S]([O-])(=O)=O,-2.5669690772
"tetrasodium 4-hydroxy-5-({4-[({4-[(8-hydroxy-3,6-disulfonato-1-naphthyl)diazenyl]-2-methoxy-5-methylphenyl}carbamoyl)amino]-5-methoxy-2-methylphenyl}diazenyl)naphthalene-2,7-disulfonate",[Na+].[Na+].[Na+].[Na+].COc1cc(N=Nc2cc(cc3cc(cc(O)c23)[S]([O-])(=O)=O)[S]([O-])(=O)=O)c(C)cc1NC(=O)Nc4cc(C)c(cc4OC)N=Nc5cc(cc6cc(cc(O)c56)[S]([O-])(=O)=O)[S]([O-])(=O)=O,-2.6903136873
"octahydrocyclopenta[c]pyrrole-1,3-dione",O=C1NC(=O)C2CCCC12,0.1553573817
2-(cyclohexylamino)ethane-1-sulfonic acid,[Na+].[O-][S](=O)(=O)CCNC1CCCCC1,-0.0784185571
disodium sulfate,[Na+].[Na+].[O-][S]([O-])(=O)=O,0.1263337648
"(8R,9S,13S,14S,17S)-17-hydroxy-13-methyl-2,4,6,7,8,9,11,12,14,15,16,17-dodecahydro-1H-cyclopenta[a]phenanthren-3-one",C[C@]12CC[C@H]3[C@@H](CCC4=C3CCC(=O)C4)[C@@H]1CC[C@@H]2O,-4.947028744
"2,2-bis(bromomethyl)propane-1,3-diol",OCC(CO)(CBr)CBr,-1.1304017512
"Pyridinium, 1,1'-[(6,13-dichloro-4,11-disulfo-3,10-triphenodioxazinediyl)bis[imino-2,1-ethanediylimino[6-[(2,5-disulfophenyl)amino]-1,3,5-triazine-4,2-diyl]]]bis[3-carboxy-, dihydroxide, bis(inner salt), hexasodium salt",[Na+].[Na+].[Na+].[Na+].[Na+].[Na+].[O-]C(=O)c1ccc[n+](c1)c2nc(NCCNc3ccc4N=C5C(=C6Oc7c(ccc(NCCNc8nc(Nc9cc(ccc9[S]([O-])(=O)=O)[S]([O-])(=O)=O)nc(n8)[n+]%10cccc(c%10)C([O-])=O)c7[S]([O-])(=O)=O)N=C6C(=C5Oc4c3[S]([O-])(=O)=O)Cl)Cl)nc(Nc%11cc(ccc%11[S]([O-])(=O)=O)[S]([O-])(=O)=O)n2,-0.9522048024
sodium 6-[(E)-2-(4-aminophenyl)diazen-1-yl]-5-hydroxynaphthalene-1-sulfonate,[Na+].Nc1ccc(N\N=C\2C=Cc3c(cccc3[S]([O-])(=O)=O)C2=O)cc1,-1.2915600389
Aescin,C/C=C(\C)/C(=O)OC1C(C2(C(CC1(C)C)C3=CCC4C5(CCC(C(C5CCC4(C3(CC2O)C)C)(C)CO)OC6C(C(C(C(O6)C(=O)O)OC7C(C(C(C(O7)CO)O)O)O)O)OC8C(C(C(C(O8)CO)O)O)O)C)CO)OC(=O)C,-1.1031036675
tin(2+) ion dichloride,[Cl-].[Cl-].[Sn++],-0.0274572689
potassium phosphorous acid,[K+].OP(O)O,1.1524094081999998
"disodium 4-nitrobenzene-1,3-diamine 3-amino-4-methoxybenzene-1-sulfonate 3-hydroxybenzen-1-olate copper",[Na+].[Na+].[Cu].COc1ccc(cc1N)[S]([O-])(=O)=O.Nc2ccc(c(N)c2)[N+]([O-])=O.Oc3cccc([O-])c3,-1.5043501961
"tetrasodium 7,7'-[(6-morpholin-4-yl-1,3,5-triazine-2,4-diyl)diimino]bis{4-hydroxy-3-[(4-methoxy-2-sulfonatophenyl)diazenyl]naphthalene-2-sulfonate}",[Na+].[Na+].[Na+].[Na+].COc1ccc(N\N=C\2C(=O)c3ccc(Nc4nc(Nc5ccc6C(=O)C(=N/Nc7ccc(OC)cc7[S]([O-])(=O)=O)/C(=Cc6c5)[S]([O-])(=O)=O)nc(n4)N8CCOCC8)cc3C=C2[S]([O-])(=O)=O)c(c1)[S]([O-])(=O)=O,-1.8252827514
"trisodium 5-oxo-1-(4-sulfonatophenyl)-4-[(E)-2-(4-sulfonatophenyl)diazen-1-yl]-4,5-dihydro-1H-pyrazole-3-carboxylate",[Na+].[Na+].[Na+].[O-]C(=O)C1=NN(c2ccc(cc2)[S]([O-])(=O)=O)C(=O)C1N=Nc3ccc(cc3)[S]([O-])(=O)=O,-0.5049964012
(2S)-2-aminopropanoic acid,CC(N)C(O)=O,0.2678986156
"disodium 3-[(E)-2-(5-chloro-2-phenoxyphenyl)diazen-1-yl]-4-hydroxy-5-(4-methylbenzenesulfonamido)naphthalene-2,7-disulfonate",[Na+].[Na+].Cc1ccc(cc1)[S](=O)(=O)Nc2cc(cc3C=C(C(=N/Nc4cc(Cl)ccc4Oc5ccccc5)\C(=O)c23)[S]([O-])(=O)=O)[S]([O-])(=O)=O,-0.6679306861
2-[benzyl(tert-butyl)amino]-1-[4-hydroxy-3-(hydroxymethyl)phenyl]ethan-1-one hydrochloride,[H+].[Cl-].CC(C)(C)N(CC(=O)c1ccc(O)c(CO)c1)Cc2ccccc2,-1.3487765491
"1,3,3-trimethyl-2-[(1E)-[2-methyl-2-(4-methylphenyl)hydrazin-1-ylidene]methyl]-3H-indol-1-ium chloride",[Cl-].CN(N=CC1=[N+](C)c2ccccc2C1(C)C)c3ccc(C)cc3,-1.3292188053
cyclohexanone oxime,ON=C1CCCCC1,-0.8495729560999999
"hexasodium 4-amino-3,6-bis[(E)-2-[5-({4-chloro-6-[(3-sulfonatophenyl)amino]-1,3,5-triazin-2-yl}amino)-2-sulfonatophenyl]diazen-1-yl]-5-hydroxynaphthalene-2,7-disulfonate",[Na+].[Na+].[Na+].[Na+].[Na+].[Na+].Nc1c(N=Nc2cc(Nc3nc(Cl)nc(Nc4cccc(c4)[S]([O-])(=O)=O)n3)ccc2[S]([O-])(=O)=O)c(cc5C=C(/C(=N/Nc6cc(Nc7nc(Cl)nc(Nc8cccc(c8)[S]([O-])(=O)=O)n7)ccc6[S]([O-])(=O)=O)C(=O)c15)[S]([O-])(=O)=O)[S]([O-])(=O)=O,-0.9572055168
(2S)-pyrrolidine-2-carboxylic acid,OC(=O)C1CCCN1,1.1291356492
calcium bis(phosphinate),[Ca++].[O-]P=O.[O-]P=O,-0.0326449205
azanium; 2-[3-[bis(2-oxido-2-oxoethyl)amino]propyl-(2-oxido-2-oxoethyl)amino]acetate; iron(+3) cation,[NH4+].[Fe+3].[O-]C(=O)CN(CCCN(CC([O-])=O)CC([O-])=O)CC([O-])=O,0.1050056219999999
"disodium 4,4'-bis[(4-anilino-6-methoxy-1,3,5-triazin-2-yl)amino]stilbene-2,2'-disulphonate",[Na+].[Na+].COc1nc(Nc2ccccc2)nc(Nc3ccc(\C=C\c4ccc(Nc5nc(Nc6ccccc6)nc(OC)n5)cc4[S]([O-])(=O)=O)c(c3)[S]([O-])(=O)=O)n1,-1.7615101482
"sodium 7-amino-8-[(E)-2-{4-chloro-3-[(2,4-dimethylphenyl)sulfamoyl]phenyl}diazen-1-yl]-3-sulfonaphthalen-1-olate",[Na+].Cc1ccc(N[S](=O)(=O)c2cc(NNC3=C4C(=O)C=C(C=C4C=CC3=N)[S]([O-])(=O)=O)ccc2Cl)c(C)c1,-0.6308713175
sodium 4-[(2-hydroxy-1-naphthyl)diazenyl]-3-methylbenzenesulfonate,[Na+].Cc1cc(ccc1N\N=C2\C(=O)C=Cc3ccccc23)[S]([O-])(=O)=O,-0.4366004304
"disodium 5-acetamido-4-hydroxy-3-[(E)-2-phenyldiazen-1-yl]naphthalene-2,7-disulfonate",[Na+].[Na+].CC(=O)Nc1cc(cc2C=C(\C(=N/Nc3ccccc3)C(=O)c12)[S]([O-])(=O)=O)[S]([O-])(=O)=O,-0.5866084475
"N,N-dimethylcyclohexanamine",CN(C)C1CCCCC1,-0.9774881423
dilithium(1+) ion carbonate,[Li+].[Li+].[O-]C([O-])=O,-0.7546423143000001
disodium 6-acetamido-4-hydroxy-3-[(4-{[2-(sulfonatooxy)ethyl]sulfonyl}phenyl)diazenyl]naphthalene-2-sulfonate,[Na+].[Na+].CC(=O)Nc1ccc2C=C(\C(=N/Nc3ccc(cc3)[S](=O)(=O)CCO[S]([O-])(=O)=O)C(=O)c2c1)[S]([O-])(=O)=O,-0.6794075026
"hydrogen [4-[[4-(diethylamino)phenyl][4-[ethyl(3-sulphonatobenzyl)amino]phenyl]methylene]cyclohexa-2,5-dien-1-ylidene](ethyl)(3-sulphonatobenzyl)ammonium, sodium salt",[Na+].CCN(CC)c1ccc(cc1)[C+](c2ccc(cc2)N(CC)Cc3cccc(c3)[S]([O-])(=O)=O)c4ccc(cc4)N(CC)Cc5cccc(c5)[S]([O-])(=O)=O,-0.7717026898999999
(6-aminohexyl)carbamic acid,NCCCCCCNC(O)=O,-0.0952988049
lithium(1+) ion trifluoromethanesulfonate,[Li].O[S](=O)(=O)C(F)(F)F,0.9030401981
amino(imino)methanaminium nitrate,NC(N)=N.O[N+]([O-])=O,0.0102512628
2-(2-ethoxyethoxy)ethyl prop-2-enoate,CCOCCOCCOC(=O)C=C,-0.181251006
butanedinitrile,N#CCCC#N,0.1752408894
"disodium 3-[(E)-2-[4-(1-{4-[(E)-2-(1,7-dihydroxy-3-sulfonatonaphthalen-2-yl)diazen-1-yl]-3-methylphenyl}cyclohexyl)-2-methylphenyl]diazen-1-yl]-4,6-dihydroxynaphthalene-2-sulfonate",[Na+].[Na+].Cc1cc(ccc1NNC2=C(C=C3C=CC(=O)C=C3C2=O)[S]([O-])(=O)=O)C4(CCCCC4)c5ccc(NNC6=C(C=C7C=CC(=O)C=C7C6=O)[S]([O-])(=O)=O)c(C)c5,-0.8547884607999999
benzenesulfonic acid,O[S](=O)(=O)c1ccccc1,0.8489070931
xylenesulphonic acid,Cc1cccc(c1C)[S](O)(=O)=O,0.7779988658
"sodium hydrogen 4-amino-5-hydroxynaphthalene-2,7-disulfonate",[Na+].Nc1cc(cc2cc(cc(O)c12)[S]([O-])(=O)=O)[S](O)(=O)=O,-1.476228892
oxalic acid,OC(=O)C(O)=O,0.0790172102
potassium trihydrogen diethanedioate,[K].OC(=O)C(O)=O.OC(=O)C(O)=O,-0.3073494259
lithium(1+) ion nitrate,[Li+].[O-][N+]([O-])=O,1.1700973958
2-(butylamino)ethan-1-ol,CCCCNCCO,0.931102034
2-(methylamino)ethan-1-ol,CNCCO,1.1242964559
2-aminoethan-1-ol,NCCO,1.2140725315
"N,N-dimethylformamide",CN(C)C=O,1.1361123296
chromium(3+) ion hydroxide sulfate,[OH-].[Cr+3].[O-][S]([O-])(=O)=O,0.7823423727
disodium sulfanediide,[Na+].S,1.2435692985
sodium 3-[(E)-2-[5-(diethylsulfamoyl)-2-methoxyphenyl]diazen-1-yl]-4-hydroxynaphthalene-1-sulfonate,[Na+].CCN(CC)[S](=O)(=O)c1ccc(OC)c(N\N=C\2C=C(c3ccccc3C2=O)[S]([O-])(=O)=O)c1,-2.4667539114
ethyl N-ethyl-N-phenylcarbamate,CCOC(=O)N(CC)c1ccccc1,0.8673994761
4-(4-hydroxybenzenesulfonyl)phenol,Oc1ccc(cc1)[S](=O)(=O)c2ccc(O)cc2,-2.3570247849
"1-(2,4-dihydroxy-6-{[(2S,3R,4S,5S,6R)-3,4,5-trihydroxy-6-(hydroxymethyl)oxan-2-yl]oxy}phenyl)-3-(4-hydroxyphenyl)propan-1-one",OC[C@H]1O[C@@H](Oc2cc(O)cc(O)c2C(=O)CCc3ccc(O)cc3)[C@H](O)[C@@H](O)[C@@H]1O,-2.639897679
3-chloro-2-methylaniline,Cc1c(N)cccc1Cl,-2.1510663204
2-phenylethyl acetate,CC(=O)OCCc1ccccc1,-2.2317574452
5-(dithiolan-3-yl)valeric acid,OC(=O)CCCCC1CCSS1,-2.3750473352
2-(2-methylphenoxymethyl)oxirane,Cc1ccccc1OCC2CO2,-2.2911044462
bis(trimethyl(tetradecyl)azanium) oxalate,CCCCCCCCCCCCCC[N+](C)(C)C.CCCCCCCCCCCCCC[N+](C)(C)C.[O-]C(=O)C([O-])=O,-2.8980709963
2-[4-(2-sulfoethyl)piperazin-1-yl]ethane-1-sulfonic acid,[Na+].O[S](=O)(=O)CCN1CCN(CC1)CC[S]([O-])(=O)=O,-2.7475939424
"5-chloro-1-(piperidin-4-yl)-2,3-dihydro-1H-1,3-benzodiazol-2-one",Clc1ccc2N(C3CC[NH2+]CC3)C(=O)Nc2c1,-2.6630758608
"3,5,5-trimethylhexanal",CC(CC=O)CC(C)(C)C,-2.6759065954
"1,2-dichlorobenzene",Clc1ccccc1Cl,-3.0533857998
(E)-anethole,COc1ccc(\C=C\C)cc1,-3.1255398769
chromium(3+) ion trichloride,[Cl-].[Cl-].[Cl-].[Cr+3],-3.1996317806
"4-(2-{2-amino-4-oxo-3H,4H,7H-pyrrolo[2,3-d]pyrimidin-5-yl}ethyl)benzoic acid",NC1=Nc2[nH]cc(CCc3ccc(cc3)C(O)=O)c2C(=O)N1,-3.5742890365
methane dimolybdenum,C.[Mo].[Mo],-3.4202754414
sodium (2S)-1-hexadecanoyl-5-oxopyrrolidine-2-carboxylate,[Na+].CCCCCCCCCCCCCCCC(=O)N1[C@@H](CCC1=O)C([O-])=O,-4.0223191178
"ethyl N,N-diphenylcarbamate",CCOC(=O)N(c1ccccc1)c2ccccc2,-3.9692395593
dialuminum hexacalcium oxygen(-2) anion trisulfate,[O--].[O--].[O--].[O--].[O--].[O--].[Al+3].[Al+3].[Ca++].[Ca++].[Ca++].[Ca++].[Ca++].[Ca++].[O-][S]([O-])(=O)=O.[O-][S]([O-])(=O)=O.[O-][S]([O-])(=O)=O,-3.0742274262
3-chloro-4-[(3-fluorophenyl)methoxy]aniline,Nc1ccc(OCc2cccc(F)c2)c(Cl)c1,-4.6932923336000005
"2-(4-bromo-3-hydroxyquinolin-2-yl)-2,3-dihydro-1H-indene-1,3-dione",Oc1c(Br)c2ccccc2nc1C3C(=O)c4ccccc4C3=O,-4.8670972664
"2,6,10,15,19,23-hexamethyltetracosane",CC(C)CCCC(C)CCCC(C)CCCCC(C)CCCC(C)CCCC(C)C,-5.1490404299
calcium dioxido-oxotin,[Ca++].[O-][Sn]([O-])=O,-5.616551128099999
octadec-2-enylsuccinic acid,CCCCCCCCCCCCCCC/C=C/CC(CC(O)=O)C(O)=O,-6.9644458512
"3-[2-(hexadecyloxy)phenyl]-3-oxo-N-(4-phenyl-1,3-thiazol-2-yl)propanamide",CCCCCCCCCCCCCCCCOc1ccccc1C(=O)CC(=O)Nc2scc(n2)c3ccccc3,-4.8472795348
2-isopropoxyethyl acetate,CC(C)OCCOC(C)=O,-0.1657752416
triammonium hexachlororhodate,[NH4+].[NH4+].[NH4+].[Cl-].[Cl-].[Cl-].[Cl-].[Cl-].[Cl-].[Rh+3],-0.5687670702000001
"2,2,4-trimethylhexanedioic acid; 2,4,4-trimethylhexanedioic acid",CC(CC(O)=O)CC(C)(C)C(O)=O,-0.2790374966
2-hydroxy-5-sulfobenzoic acid,OC(=O)c1cc(ccc1O)[S](O)(=O)=O,0.6554902722
morpholin-4-ium sulfamate,N[S](O)(=O)=O.C1COCCN1,0.727886015
potassium fluoride,[F-].[K+],1.2284072863
1-(2-hydroxyethyl)imidazolidin-2-one,OCCN1CCNC1=O,0.8776773261
"4-(2-hydroxyethoxy)benzene-1,3-diaminium sulfate",Nc1ccc(OCCO)c(N)c1,-0.2337041755
2-methylprop-2-enoic acid,CC(=C)C(O)=O,0.0562733679
2-methylprop-2-enoyl 2-methylprop-2-enoate,CC(=C)C(=O)OC(=O)C(C)=C,-0.1967597116
tetraethylazanium benzoate,CC[N+](CC)(CC)CC.[O-]C(=O)c1ccccc1,0.583312842
sodium cyanate,[Na+].[O-]C#N,0.1711169096
sodium hydrogen carbonate,[Na+].OC([O-])=O,0.0579609271
2-[(2-hydroxyethyl)amino]ethan-1-ol,OCCNCCO,0.9577927941
2-(2-{2-[2-(prop-2-enoyloxy)ethoxy]ethoxy}ethoxy)ethyl prop-2-enoate,C=CC(=O)OCCOCCOCCOCCOC(=O)C=C,-0.5000132962
"hydrogen 3,6-bis(diethylamino)-9-(2,4-disulphonatophenyl)xanthylium, sodium salt",[Na+].CCN(CC)c1cc2[o+]c3cc(N(CC)CC)c(C)cc3c(c2cc1C)c4ccc(cc4[S]([O-])(=O)=O)[S]([O-])(=O)=O,-0.8053203897
sodium bromide,[Na+].[Br-],0.9635010857
1-methoxy-2-(2-methoxyethoxy)ethane,COCCOCCOC,0.8454562496
(2E)-but-2-enoic acid,C/C=C/C(O)=O,0.0381751458
barium dinitrate,[Ba++].[O-][N+]([O-])=O.[O-][N+]([O-])=O,-0.4440713859
"bis(5-oxo-L-prolinato-N1,O2)zinc",[Zn++].[O-]C(=O)C1CCC(=O)N1.[O-]C(=O)C2CCC(=O)N2,-0.5341935881000001
calcium bis(dihydrogenorthophosphate),[Ca++].O[P](O)([O-])=O.O[P](O)([O-])=O,-0.3966430532
potassium (dimethylamino)acetate,[K+].CN(C)CC([O-])=O,0.8091728638
dipotassium carbonate,[K+].OC([O-])=O,0.9537476957
3-methylbut-3-en-1-ol,CC(=C)CCO,0.0190678934
"sodium 3-(2H-1,2,3-benzotriazol-2-yl)-5-(butan-2-yl)-4-hydroxybenzene-1-sulfonate",[Na+].CCC(C)c1cc(cc(n2nc3ccccc3n2)c1O)[S]([O-])(=O)=O,-1.5762449498
4-methylaniline,Cc1ccc(N)cc1,-1.0477452605
disodium 6-amino-5-[(E)-2-[4-(2-bromoprop-2-enamido)-2-(4-methyl-3-sulfonatobenzenesulfonyl)phenyl]diazen-1-yl]naphthalene-2-sulfonate,[Na+].[Na+].Cc1ccc(cc1[S]([O-])(=O)=O)[S](=O)(=O)c2cc(NC(=O)C(Br)=C)ccc2N=Nc3c(N)ccc4cc(ccc34)[S]([O-])(=O)=O,-1.8948362305
2-ethoxyphenol,CCOc1ccccc1O,-1.1714515037
"(5-ethyl-1,3-dioxan-5-yl)methyl prop-2-enoate",CCC1(COCOC1)COC(=O)C=C,-1.3330548746
4-hydroxy-3-methoxybenzaldehyde,COc1cc(C=O)ccc1O,-1.2280265929
dibromomethane,BrCBr,-1.2858947125