Name,SMILES,Solubility
Chlorimuron-ethyl (ph 7),CCOC(=O)c1ccccc1S(=O)(=O)NN(C=O)c2nc(Cl)cc(OC)n2,-4.5760000000000005
Chloroacetonitrile,ClCC#N,-0.092
chloropropylate,c1ccc(Cl)cc1C(c2ccc(Cl)cc2)(O)C(=O)OC(C)C,-4.53
"cis 1,2-Dichloroethylene",Cl\C=C/Cl,-1.3
"cis-1,2-Dimethylcyclohexane",C/C1CCCCC1\C,-4.3
cortisone acetate,CC(=O)OCC(=O)C3(O)CCC4C2CCC1=CC(=O)CCC1(C)C2C(=O)CC34C ,-4.21
Coumachlor,CC(=O)CC(c1ccc(Cl)cc1)c2c(O)c3ccccc3oc2=O,-5.839
Coumaphos,CCOP(=S)(OCC)Oc2ccc1oc(=O)c(Cl)c(C)c1c2,-5.382000000000001
Cycloheptanol,OC1CCCCCC1,-0.88
Cycloheptene,C1CCC=CCC1,-3.18
Cyclooctanol,OC1CCCCCCC1,-1.29
Cyclopentyl-5-spirobarbituric acid,O=C2NC(=O)C1(CCCC1)C(=O)N2,-2.349
Cyfluthrin,CC1(C)C(C=C(Cl)Cl)C1C(=O)OC(C#N)c2ccc(F)c(Oc3ccccc3)c2,-7.337000000000001
Cyhalothrin,CC1(C)C(C=C(Cl)C(F)(F)F)C1C(=O)OC(C#N)c2cccc(Oc3ccccc3)c2,-8.176
Dapsone,Nc1ccc(cc1)S(=O)(=O)c2ccc(N)cc2,-3.094
Deltamethrin,CC1(C)C(C=C(Br)Br)C1C(=O)OC(C#N)c2cccc(Oc3ccccc3)c2,-8.402000000000001
Dienestrol,CC=C(C(=CC)c1ccc(O)cc1)c2ccc(O)cc2,-4.95
Diethyldisulfide,CCSSCC,-2.42
Dihexyl phthalate,CCCCCCOC(=O)c1ccccc1C(=O)OCCCCCC,-6.144
Diisopropylsulfide,CC(C)SC(C)C,-2.24
Dimecron,CCN(CC)C(=O)C(=CCOP(=O)(OC)OC)Cl,0.523
Di-n-propylsulfide,CCCSCCC,-2.58
Diosgenin,C1C(O)CCC2(C)CC3CCC4(C)C5(C)CC6OCC(C)CC6OC5CC4C3C=C21,-7.32
Ethalfluralin,CCN(CC(C)=C)c1c(cc(cc1N(=O)=O)C(F)(F)F)N(=O)=O,-6.124
Ethyl hexanoate,CCCCCC(=O)OCC,-2.35
Ethylene,C=C,-0.4
fluconazole,OC(Cn1cncn1)(Cn2cncn2)c3ccc(F)cc3F ,-1.8
Flucytosine,Nc1nc(=O)[nH]cc1F,-0.972
Flumethasone,CC1CC2C3CC(F)C4=CC(=O)C=CC4(C)C3(F)C(O)CC2(C)C1(O)C(=O)CO,-5.613
Fructose,OCC1OC(O)(CO)C(O)C1O,0.64
gentisin,c1c(O)C2C(=O)C3cc(O)ccC3OC2cc1(OC),-2.943
hydrochlorothiazide,NS(=O)(=O)c2cc1c(NCNS1(=O)=O)cc2Cl ,-2.63
Hydrocortisone ,CC12CC(O)C3C(CCC4=CC(=O)CCC34C)C2CCC1(O)C(=O)CO,-3.09
Iodobenzene,Ic1ccccc1,-3.01
Khellin,COc2c1occc1c(OC)c3c(=O)cc(C)oc23 ,-3.0210000000000004
Lindane,ClC1C(Cl)C(Cl)C(Cl)C(Cl)C1Cl,-4.64
meconin,c1c(OC)c(OC)C2C(=O)OCC2c1,-1.899
Methyl acetate,COC(=O)C,0.46
Methyl butyrate,CCCOC(=O)CC,-0.82
Methyl hexanoate,CCCCCC(=O)OC,-1.87
Methyl nonanoate,CCCCCCCCC(=O)OC,-3.38
Methyl octanoate,CCCCCCCC(=O)OC,-3.17
Methyl pentanoate,CCCC(=O)OCC,-1.36
Methylparaben,COC(=O)c1ccc(O)cc1,-1.827
Metolcarb,c1ccccc1(OC(=O)NC),-1.803
Metoxuron,COc1ccc(NC(=O)N(C)C)cc1Cl,-2.564
nevirapine,Cc3ccnc4N(C1CC1)c2ncccc2C(=O)Nc34 ,-3.19
nifedipine,COC(=O)C1=C(C)NC(=C(C1c2ccccc2N(=O)=O)C(=O)OC)C ,-4.76
Nitroethane,CCN(=O)=O,-0.22
nitrofurantoin,O=C2CN(N=Cc1ccc(o1)N(=O)=O)C(=O)N2 ,-3.38
norbormide,OC(C1=CC2C5C(C1C2=C(c3ccccc3)c4ccccn4)C(=O)NC5=O)(c6ccccc6)c7ccccn7 ,-3.931
Norethisterone,CC34CCC1C(CCC2=CC(=O)CCC12O)C3CCC4(O)C#C,-4.57
Oxamyl,CNC(=O)ON=C(SC)C(=O)N(C)C,0.106
Oxazepam,OC3N=C(c1ccccc1)c2cc(Cl)ccc2NC3=O ,-3.952
p-Chloroiodobenzene,Clc1ccc(I)cc1,-4.03
Pencycuron,Clc1ccc(CN(C2CCCC2)C(=O)Nc3ccccc3)cc1,-5.915
Phoxim,CCOP(=S)(OCC)ON=C(C#N)c1ccccc1,-4.862
phthalamide,c1cC2C(=O)NC(=O)C2cc1,-2.932
Picene,c1ccc2c(c1)ccc3c2ccc4c5ccccc5ccc43,-7.87
Prednisolone,CC12CC(O)C3C(CCC4=CC(=O)C=CC34C)C2CCC1(O)C(=O)CO,-3.18
Propetamphos,CCNP(=S)(OC)OC(=CC(=O)OC(C)C)C,-3.408
Propylene,CC=C,-1.08
Pyrazinamide,NC(=O)c1cnccn1,-0.667
Quinonamid,ClC(Cl)CC(=O)NC2=C(Cl)C(=O)c1ccccc1C2=O,-5.03
Reposal,CCC1(C(=O)NC(=O)NC1=O)C2=CCC3CCC2C3,-2.696
Reverse Transcriptase inhibitor 1,CCN2c1ncccc1N(C)C(=O)c3cccnc23 ,-2.62
Risocaine,CCCOC(=O)c1ccc(N)cc1,-2.452
RTI 10,O2c1ccccc1N(C)C(=O)c3cccnc23 ,-3.672
RTI 11,O2c1ccc(N)cc1N(C)C(=O)c3cc(C)ccc23 ,-3.928
RTI 12,CCN2c1nc(Cl)ccc1N(C)C(=O)c3cccnc23 ,-4.114
RTI 13,CCN2c1nc(C)cc(C(F)(F)F)c1NC(=O)c3cccnc23 ,-4.207
RTI 15,CCN2c1nc(C)cc(C)c1NC(=O)c3cccnc23 ,-4.553999999999999
RTI 16,CCN2c1ncccc1N(C)C(=S)c3cccnc23 ,-4.634
RTI 17,CCN2c1ccccc1N(C)C(=S)c3cccnc23 ,-4.706
RTI 19,CCN2c1ccccc1N(C)C(=O)c3ccccc23 ,-4.749
RTI 2,CCN2c1ncccc1N(CC)C(=O)c3cccnc23 ,-2.86
RTI 22,CCN2c1cc(N(C)C)cc(C)c1NC(=O)c3cccnc23 ,-4.871
RTI 23,CCN2c1cc(OC)cc(C)c1NC(=O)c3cccnc23 ,-5.153
RTI 24,CCN2c1cc(Cl)ccc1NC(=O)c3cccnc23 ,-5.36
RTI 3,O2c1cc(C)ccc1N(C)C(=O)c3cc(N)cnc23 ,-3.043
RTI 5,CCN2c1ccccc1N(C)C(=O)c3cccnc23 ,-3.324
RTI 6,CCN2c1nc(N(C)(CCO))ccc1NC(=O)c3cccnc23 ,-3.36
RTI 7,C2c1ccccc1N(CCF)C(=O)c3ccccc23 ,-3.535
RTI 9,O2c1ccccc1N(CC)C(=O)c3ccccc23 ,-3.68
Simetryn,CSc1nc(nc(n1)N(C)C)N(C)C,-2.676
"Sparsomycin (3,8mg/ml)",CSCS(=O)CC(CO)NC(=O)C=Cc1c(C)[nH]c(=O)[nH]c1=O,-1.981
stadacaine,CCCCOc1ccc(C(=O)OCC)c(c1)N(CC)CC ,-3.84
Sucrose,OCC2OC(OC1(CO)OC(CO)C(O)C1O)C(O)C(O)C2O ,0.79
Sulfanilamide,Nc1ccc(cc1)S(N)(=O)=O,-1.34
t-Crotonaldehyde,C/C=C/C=O,0.32
Testosterone,CC12CCC3C(CCC4=CC(=O)CCC34C)C2CCC1O,-4.02
testosterone acetate,CC(=O)OC3CCC4C2CCC1=CC(=O)CCC1(C)C2CCC34C ,-5.184
Tetrafluthrin,Cc1c(F)c(F)c(COC(=O)C2C(C=C(Cl)C(F)(F)F)C2(C)C)c(F)c1F,-7.321000000000001
t-Pentylbenzene,CC(C)(C)Cc1ccccc1,-4.15
Triamterene,Nc3nc(N)c2nc(c1ccccc1)c(N)nc2n3,-2.404
Trichloroacetonitrile,ClC(Cl)(Cl)C#N,-2.168
Tricresyl phosphate,Cc1ccc(OP(=O)(Oc2cccc(C)c2)Oc3ccccc3C)cc1,-6.01
triforine,ClC(Cl)(Cl)C(NC=O)N1C=CN(C=C1)C(NC=O)C(Cl)(Cl)Cl ,-4.19
Vinclozolin,CC1(OC(=O)N(C1=O)c2cc(Cl)cc(Cl)c2)C=C,-4.925
Androstanedione  ,CC12CCCC1C1CCC3CC(=O)C(=O)CC3(C)C1CC2,-3.76
Betamethasone  ,CCC(=O)OCC(=O)C1(OC(=O)CC)C(C)CC2C3CCC4=CC(=O)C=CC4(C)C3(F)C(O)CC21C,-3.77
Cholesterol  ,CC(C)CCCC(C)C1CCC2C3CC=C4CC(O)CCC4(C)C3CCC12C,-7.0
Decachlorodiphenyl ether  ,ClC1=C(Cl)C(Cl)=C(OC2=C(Cl)C(Cl)=C(Cl)C(Cl)=C2Cl)C(Cl)=C1Cl,-12.95
"4,4'-Dibromobiphenyl  ",BrC1=CC=C(C2=CC=C(Br)C=C2)C=C1,-7.74
Dichlorodifluoromethane  ,FC(F)(Cl)Cl,-1.99
"2,2'-Dichloroethyl ether  ",ClC(Cl)COCC(Cl)Cl,-1.12
"1,4-Dipentadiene  ",C=CC=C(C)C=CC=CC,-2.09
Ethylenedichloride  ,ClCCCl,-1.08
"2,2',3,4',5,5',6-Heptachlorobiphenyl  ",ClC1=CC(Cl)=C(Cl)C=C1C1=C(Cl)C(Cl)=CC(Cl)=C1Cl,-8.94
"2,2',3,3',4,4',5-Heptachlorodiphenyl ether  ",ClC1=CC=C(OC2=CC(Cl)=C(Cl)C(Cl)=C2Cl)C(Cl)=C1Cl,-9.12
Hexachlorobenzene  ,ClC1=C(Cl)C(Cl)=C(Cl)C(Cl)=C1Cl,-7.56
"2,2',4,4',5,5'-Hexachlorobiphenyl  ",ClC1=CC(Cl)=C(Cl)C(C2=CC(Cl)=CC(Cl)=C2Cl)=C1,-8.56
"2,2',3,4,4',5'-Hexachlorobiphenyl  ",ClC1=CC=C(C2=CC(Cl)=C(Cl)C(Cl)=C2Cl)C(Cl)=C1,-8.32
"1,2,3,4,7,8-Hexachlorodibenzofuran  ",ClC1=C(Cl)C=C2C(=C1)OC1=C(Cl)C(Cl)=C(Cl)C(Cl)=C21,-10.66
11-a-Hydroxyprogesterone  ,CC(=O)C1CCC2C3CCC4=CC(=O)CC(O)C4(C)C3CCC12C,-3.82
Methyl chloride  ,CCl,-0.88
17-Methyl testosterone  ,CC12CCC(=O)C=C1CCC1C2CCC2(C)C1CCC2(C)O,-3.97
2-Nitropropane  ,CCC(C)[N+](=O)[O-],-0.62
m-Nitrotoluene  ,CC1=CC(=CC=C1)[N+](=O)[O-],-2.46
1-Mentanol  ,CC(C)C1(C)CCCC(O)C1,-0.6
2-Mentanol  ,CC(C)C1C(C)CCCC1O,-0.29
3-Mentanol  ,CC1CCCC(O)(C(C)C)C1,-0.24
Phenacetin  ,CCOC1=CC=C(NC(C)=O)C=C1,-2.3
Propane  ,CCC,-2.84
Propyzamide  ,CCC(N)=O,-4.23
"2,2',5,5'-Tetrabromobiphenyl  ",BrC1=CC=C(Br)C(C2=CC(Br)=CC=C2Br)=C1,-8.06
"1,1,2,2-Tetrabromoethane  ",BrC(Br)C(Br)Br,-2.72
"2,4,5,6-Tetrachloroanisole  ",COC1=C(Cl)C(Cl)=C(Cl)C=C1Cl,-5.13
"1,2,3,5-Tetrachlorobenzene  ",ClC1=CC(Cl)=C(Cl)C(Cl)=C1,-4.68
"1,2,4,5-Tetrachlorobenzene  ",ClC1=CC(Cl)=C(Cl)C=C1Cl,-5.47
"2,2',4,6'-Tetrachlorobenzyl 3-toluene  ",CC1=C(Cl)C(CC2=C(Cl)C=CC=C2Cl)=CC=C1Cl,-7.99
"2,2',4,4'-Tetrachlorobenzyl 3-toluene  ",CC1=C(Cl)C(CC2=CC=C(Cl)C=C2Cl)=CC=C1Cl,-7.4
"2,2',5,5'-Tetrachlorobenzyl 4-toluene  ",CC1=C(Cl)C=C(CC2=CC(Cl)=CC=C2Cl)C(Cl)=C1,-8.03
"2,2',4,6'-Tetrachlorobenzyl 5-toluene  ",CC1=C(Cl)C=C(Cl)C(CC2=C(Cl)C=CC=C2Cl)=C1,-8.36
"2,2',4,4'-Tetrachlorobenzyl 5-toluene  ",CC1=C(Cl)C=C(Cl)C(CC2=CC=C(Cl)C=C2Cl)=C1,-7.49
"2,3,4,4'-Tetrachlorobenzyl 5-toluene  ",CC1=C(Cl)C(Cl)=C(Cl)C(CC2=CC=C(Cl)C=C2)=C1,-8.18
"2,3,4,6'-Tetrachlorobenzyl 6-toluene  ",CC1=C(CC2=C(Cl)C=CC=C2)C(Cl)=C(Cl)C(Cl)=C1,-7.24
"2,3,4,4'-Tetrachlorobenzyl 6-toluene  ",CC1=C(CC2=CC=C(Cl)C=C2)C(Cl)=C(Cl)C(Cl)=C1,-7.44
"3,3',4,4'-Tetrachlorobiphenyl  ",ClC1=CC=C(C2=CC=C(Cl)C(Cl)=C2)C=C1Cl,-8.53
"2,4,4',6-Tetrachlorobiphenyl  ",ClC1=CC=C(C2=C(Cl)C=C(Cl)C=C2Cl)C=C1,-6.94
"1,2,3,4-Tetrachlorodibenzo-p-dioxin  ",ClC1=C(Cl)C(Cl)=C2OC3=CC=CC=C3OC2=C1Cl,-8.77
Tetrachloroethylene  ,ClC(Cl)=C(Cl)Cl,-2.74
"2,4,6-Tribromobiphenyl  ",BrC1=CC(Br)=C(C2=CC=CC=C2)C(Br)=C1,-7.3
"2,4,6-Trichloroanisole  ",COC1=C(Cl)C=C(Cl)C=C1Cl,-4.2
"1,3,5-Trichlorobenzene  ",ClC1=CC(Cl)=CC(Cl)=C1,-4.6
"1,2,4-Trichlorodibenzo-p-dioxin  ",ClC1=CC(Cl)=C2OC3=CC=CC=C3OC2=C1Cl,-7.58
"1,1,1-Trichloroethane  ",CC(Cl)(Cl)Cl,-2.14
"1,1,2-Trichlorofluoroethane  ",FC(Cl)(Cl)CCl,-3.04
Vernolate  ,CCCSC(=O)N(CCC)CCC,-3.3
"1,1,3,4,4-Pentachloro-1,2-Butadiene  ",ClC(Cl)=C=C(Cl)C(Cl)Cl,-4.23
"2,2',3,3',4,4',5,5',6'-Nonachlorodiphenyl ether  ",ClC1=C(Cl)C(Cl)=C(Cl)C(OC2=C(Cl)C(Cl)=C(Cl)C(Cl)=C2Cl)=C1,-10.55
"2,2',4,5'-Tetrachlorobenzyl-5 toluene  ",CC1=C(Cl)C=C(Cl)C(CC2=CC(Cl)=CC=C2Cl)=C1,-8.06
Alachlor,CCC1=CC=CC(CC)=C1N(COC)C(=O)CCl,-3.17
Aldicarb,CNC(=O)ON=CC(C)(C)SC,-0.71
Carbophenothion,CCOP(=S)(OCC)SCSC1=CC=C(Cl)C=C1,-6.05
dialifos,CCOP(=S)(OCC)SC(CCl)N1C(=O)C2=CC=CC=C2C1=O,-5.85
o-dibutylphthalate,CCCCC1=C(CCCC)C(C(O)=O)=C(C(O)=O)C=C1,-4.4
Digoxin,CC1OC(OC2C(O)CC(OC3C(O)CC(OC4CCC5(C)C(CCC6C5CC(O)C5(C)C(C7=CC(=O)OC7)CCC65O)C4)OC3C)OC2C)CC(O)C1O,-4.16
b-Endosulfan,O=S1OCC2C(CO1)C1(Cl)C(Cl)=C(Cl)C2(Cl)C1(Cl)Cl,-6.08
Parathion,CCOP(=S)(OCC)OC1=CC=C(C=C1)[N+](=O)[O-],-4.29
Pebulate,CCCCN(CC)C(=O)SCCC,-3.41
Perthane,CCC1=CC=C(C(C2=CC=C(CC)C=C2)C(Cl)Cl)C=C1,-7.04
Prasterone,CC12CCC3C(CC=C4CC(O)CCC43C)C1CCC2=O,-4.01
2_amino_5_bromobenzoic_acid,Brc1cc(C(O)=O)c(N)cc1,-3.07
5_bromo_2_4_dihydroxybenzoic_acid,Oc1c(Br)cc(C(O)=O)c(O)c1,-2.62
acetazolamide,S(=O)(=O)(N)c1sc(NC(=O)C)nn1,-2.44
amitryptyline,CN(C)CC\C=C1\c2ccccc2CCc2ccccc12,-4.55
amodiaquine,c1(c(CN(CC)CC)cc(cc1)Nc1ccnc2c1ccc(c2)Cl)O,-5.79
atropine,CN1[C@H]2CC[C@@H]1C[C@@H](C2)OC(=O)C(CO)C1=CC=CC=C1,-2.0
benzylimidazole,n1(Cc2ccccc2)cncc1,-2.26
bromogramine,Brc1cc2c(CN(C)C)c[nH]c2cc1,-4.06
carvedilol,COc1ccccc1OCCNCC(O)COc1cccc2[nH]c3ccccc3c12,-4.26
cephalothin,C1(=C(COC(C)=O)CS[C@@H]2[C@H](NC(=O)Cc3cccs3)C(N12)=O)C(O)=O,-2.94
chlorpheniramine,C([C@H](c1ccccn1)c1ccc(cc1)Cl)CN(C)C,-2.67
chlorpromazine,c1c(Cl)ccc2Sc3ccccc3N(CCCN(C)C)c12,-5.07
chlorpropamide,Clc1ccc(S(=O)(NC(=O)NCCC)=O)cc1,-3.25
chlorzoxazone,c1cc2c(cc1Cl)[nH]c(=O)o2,-2.66
ciprofloxacin,O=C(c1cn(C2CC2)c2c(cc(F)c(N3CCNCC3)c2)c1=O)O,-3.6
danofloxacin,C[N@]1C[C@@H]2C[C@H]1CN2c1c(cc2c(n(cc(C(=O)O)c2=O)C2CC2)c1)F,-2.9
deprenyl,C[C@H](CC1=CC=CC=C1)N(C)CC#C,-2.51
diltiazem,O=C1[C@H](OC(C)=O)[C@H](c2ccc(OC)cc2)Sc2ccccc2N1CCN(C)C,-3.16
diphenydramine,CN(C)CCOC(c1ccccc1)c1ccccc1,-2.95
famotidine,N\C(CCSCc1csc(\N=C(\N)N)n1)=N\S(=O)(N)=O,-2.65
fenoprofen,CC(C(O)=O)c1cccc(Oc2ccccc2)c1,-3.7
glipizide,O=C(NC1CCCCC1)NS(=O)(c1ccc(CCNC(c2cnc(cn2)C)=O)cc1)=O,-5.49
guanine,[nH]1cnc2nc(N)[nH]c(=O)c12,-4.43
hydroflumethiazide,S1(=O)(=O)NCNc2c1cc(S(=O)(N)=O)c(c2)C(F)(F)F,-2.97
nalidixic_acid,CCn1cc(c(=O)c2ccc(nc12)C)C(=O)O,-3.61
naloxone,O[C@]1([C@H](N(CC=C)CC2)C3)[C@@]42C5=C3C=CC(O)=C5O[C@H]4C(CC1)=O,-2.9
naproxen,O=C(O)[C@@H](C)c1ccc2cc(ccc2c1)OC,-4.5
nortriptiline,N(CC\C=C1\c2c(CCc3c1cccc3)cccc2)C,-4.02
oxytetracycline,OC1=C(C(O)=C(C([C@@](C(C(C(N)=O)=C(O)[C@H]2N(C)C)=O)(O)[C@@]2([H])[C@H]3O)=O)[C@@]3([H])[C@@]4(O)C)C4=CC=C1,-3.09
papaverine,c1(nccc2cc(c(OC)cc12)OC)Cc1cc(c(cc1)OC)OC,-3.87
phenazopyridine,c1ccc(cc1)\N=N\c1c(nc(cc1)N)N,-4.19
phenobarbital,C1(NC(C(c2ccccc2)(C(=O)N1)CC)=O)=O,-2.29
pindolol,CC(C)NCC(O)COc1cccc2[nH]ccc12,-3.79
procaine,Nc1ccc(C(OCCN(CC)CC)=O)cc1,-1.72
quinine,[H]C1(CN2CCC1C[C@@]2([H])[C@H](O)C1=CC=NC2=C1C=C(OC)C=C2)C=C,-2.79
ranitidine,S(Cc1oc(CN(C)C)cc1)CCN\C(NC)=C\N(=O)=O,-2.5
sarafloxacin,C1CN(CCN1)c1c(cc2c(n(cc(C(=O)O)c2=O)c2ccc(cc2)F)c1)F,-3.13
sparfloxacin,C[C@H]1CN(C[C@@H](C)N1)C1=C(F)C2=C(C(=O)C(=CN2C2CC2)C(O)=O)C(N)=C1F,-3.37
sulfamethazine,S(=O)(=O)(Nc1nc(C)cc(n1)C)c1ccc(N)cc1,-2.73
sulfasalazine,C(=O)(O)c1cc(ccc1O)\N=N\c1ccc(cc1)S(=O)(Nc1ccccn1)=O,-6.14
sulindac_form_II,CC1=C(CC(O)=O)c2cc(F)ccc2C\1=C\c1ccc(cc1)S(C)=O,-4.5
tetracaine,C(c1ccc(cc1)NCCCC)(=O)OCCN(C)C,-3.01
tetracycline,OC1=C(C(C2=C(O)[C@@](C(C(C(N)=O)=C(O)[C@H]3N(C)C)=O)(O)[C@@]3([H])C[C@]2([H])[C@@]4(O)C)=O)C4=CC=C1,-2.93
thymol,c1(cc(ccc1C(C)C)C)O,-2.19
verapamil,COc1ccc(CCN(C)CCCC(C#N)(C(C)C)c2ccc(OC)c(OC)c2)cc1OC,-3.98
warfarin,CC(=O)CC(c1ccccc1)c1c(O)c2ccccc2oc1=O,-4.78