Name,SMILES,Solubility
2-(4-chloro-2-fluorophenyl)acetonitrile,Fc1cc(Cl)ccc1CC#N,-2.5939062498
"2,2-dimethyl-4-phenylpentanenitrile",CC(CC(C)(C)C#N)c1ccccc1,-3.2350788163
4-tert-butylcyclohexyl acetate,CC(=O)OC1CCC(CC1)C(C)(C)C,-3.6996406686
17-hydroxyandrostan-3-one,C[C@]12CC[C@H]3[C@@H](CC[C@H]4CC(=O)CC[C@]34C)[C@@H]1CC[C@@H]2O,-4.9189988507
1-cyclohexyl-3-[4-({4-[(cyclohexylcarbamoyl)amino]phenyl}methyl)phenyl]urea,O=C(NC1CCCCC1)Nc2ccc(Cc3ccc(NC(=O)NC4CCCCC4)cc3)cc2,-5.142667396
"2,4-dioxo-1,3-diazetidine-1,3-bis(methyl-m-phenylene) diisocyanate",Cc1ccc(cc1N=C=O)N2C(=O)N(c3ccc(C)c(c3)N=C=O)C2=O,-5.0368259397
"(2R)-2-[(2R,3R,4S)-3,4-dihydroxyoxolan-2-yl]-2-hydroxyethyl dodecanoate",CCCCCCCCCCCC(=O)OCC(O)[C@H]1OC[C@@H](O)[C@@H]1O,-5.0625368604
methyl 2-({4-[2-(2-cyano-4-nitrophenyl)diazen-1-yl]-3-acetamidophenyl}(2-methoxy-2-oxoethyl)amino)acetate,COC(=O)CN(CC(=O)OC)c1ccc(N=Nc2ccc(cc2C#N)[N+]([O-])=O)c(NC(C)=O)c1,-5.1935197379
iodocopper,[Cu+].[I-],-5.9787509813
"4-[(E)-2-{3-[(E)-2-(2,4-diaminophenyl)diazen-1-yl]phenyl}diazen-1-yl]benzene-1,3-diamine",Nc1ccc(N=Nc2cccc(c2)N=Nc3ccc(N)cc3N)c(N)c1,-4.197152695
"2,3-dimethylpentane; 2-methylpentane; 3-methylhexane; 3-methylpentane",CCCC(C)C.CCCC(C)CC.CCC(C)CC.CCC(C)C(C)C,-3.2704062978
pent-2-ene,CC\C=C\C,-2.5449048057
hydrogen sulfide,S,-5.5325378146
2-[(2-cyanoethyl)[4-[(6-nitrobenzothiazol-2-yl)azo]phenyl]amino]ethyl acetate,CC(=O)OCCN(CCC#N)c1ccc(cc1)N=Nc2sc3cc(ccc3n2)[N+]([O-])=O,-4.3409088983
2-[(E)-2-{4-[(E)-2-(2-cyanophenyl)ethenyl]phenyl}ethenyl]benzonitrile,N#Cc1ccccc1/C=C/c2ccc(cc2)/C=C/c3ccccc3C#N,-4.2206388586
"3,3'-[[4-[(2-chloro-4-nitrophenyl)azo]phenyl]imino]bis[propiononitrile]",[O-][N+](=O)c1ccc(N=Nc2ccc(cc2)N(CCC#N)CCC#N)c(Cl)c1,-4.281954413
3-[[2-(acetyloxy)ethyl][4-[(4-nitrophenyl)azo]phenyl]amino]propiononitrile,CC(=O)OCCN(CCC#N)c1ccc(cc1)N=Nc2ccc(cc2)[N+]([O-])=O,-4.2803415835
"3-[[4-[(2,6-dibromo-4-nitrophenyl)azo]phenyl]ethylamino]propiononitrile",CCN(CCC#N)c1ccc(cc1)N=Nc2c(Br)cc(cc2Br)[N+]([O-])=O,-4.3812486892
3-[[4-[(2-chloro-4-nitrophenyl)azo]phenyl]ethylamino]propiononitrile,CCN(CCC#N)c1ccc(cc1)N=Nc2ccc(cc2Cl)[N+]([O-])=O,-4.2526115544
"N-{5-[bis(prop-2-en-1-yl)amino]-2-[(E)-2-(2-chloro-4,6-dinitrophenyl)diazen-1-yl]-4-methoxyphenyl}acetamide",COc1cc(N=Nc2c(Cl)cc(cc2[N+]([O-])=O)[N+]([O-])=O)c(NC(C)=O)cc1N(CC=C)CC=C,-4.3881793818
(1-ethoxy-1-oxopropan-2-yl) 5-[2-chloro-4-(trifluoromethyl)phenoxy]-2-nitrobenzoate,CCOC(=O)C(C)OC(=O)c1cc(Oc2ccc(cc2Cl)C(F)(F)F)ccc1[N+]([O-])=O,-6.6230386723
1-methyl-3-oxoandrostan-17-yl acetate,C[C@H]1CC(=O)C[C@@H]2CC[C@H]3[C@@H]4CC[C@H](OC(C)=O)[C@@]4(C)CC[C@@H]3[C@@]12C,-5.0925589945
"2,3-Dihydroxypropyl docosanoate",CCCCCCCCCCCCCCCCCCCCCC(=O)OCC(O)CO,-6.9187336597
2-methylpropane,C[C](C)C,-4.3765465432
dihydroxy-dioxomolybdenum,O[Mo](O)(=O)=O,-2.3797609623
"Butene, homopolymer (products derived from either/or But-1-ene/But-2-ene)",CCC=C.C\C=C\C,-4.6698435423
2-[(heptanoyloxy)methyl]-3-hydroxy-2-[(pentanoyloxy)methyl]propyl nonanoate,CCCCCCCCC(O)=O.CCCCCCC(O)=O.CCCCC(O)=O.OCC(CO)(CO)CO,-5.4183738573
"2-{[2-(acetyloxy)ethyl]({4-[(E)-2-(2-bromo-4,6-dinitrophenyl)diazen-1-yl]-5-acetamido-2-methoxyphenyl})amino}ethyl acetate",COc1cc(N=Nc2c(Br)cc(cc2[N+]([O-])=O)[N+]([O-])=O)c(NC(C)=O)cc1N(CCOC(C)=O)CCOC(C)=O,-5.4951202425
"2-tert-butylbenzene-1,4-diol",CC(C)(C)c1cc(O)ccc1O,-1.220683278
4-methoxy-2-nitroaniline,COc1ccc(N)c(c1)[N+]([O-])=O,-1.2257020372
"1,1-diethoxy-3,7-dimethylocta-2,6-diene",CCOC(OCC)\C=C(C)\CCC=C(C)C,-2.3547996853
"1H-1,3-benzodiazole-2-thiol",S=C1Nc2ccccc2N1,-2.176687281
1-(hexyloxy)hexane,CCCCCCOCCCCCC,-4.2703037605
3-[[2-(2-cyanoethoxy)ethyl][4-[(4-nitrophenyl)azo]phenyl]amino]propiononitrile,[O-][N+](=O)c1ccc(cc1)N=Nc2ccc(cc2)N(CCOCCC#N)CCC#N,-4.5937500267
"N,N',N'',N'''-tetrakis(4,6-bis(butyl-(N-methyl-2,2,6,6-tetramethylpiperidin-4-yl)amino)triazin-2-yl)-4,7-diazadecane-1,10-diamine",CCCCN(C1CC(C)(C)N(C)C(C)(C)C1)c2nc(NCCCN(CCN(CCCNc3nc(nc(n3)N(CCCC)C4CC(C)(C)N(C)C(C)(C)C4)N(CCCC)C5CC(C)(C)N(C)C(C)(C)C5)c6nc(nc(n6)N(CCCC)C7CC(C)(C)N(C)C(C)(C)C7)N(CCCC)C8CC(C)(C)N(C)C(C)(C)C8)c9nc(nc(n9)N(CCCC)C%10CC(C)(C)N(C)C(C)(C)C%10)N(CCCC)C%11CC(C)(C)N(C)C(C)(C)C%11)nc(n2)N(CCCC)C%12CC(C)(C)N(C)C(C)(C)C%12,-5.3590146681
"N-{2-[(E)-2-(2-chloro-4,6-dinitrophenyl)diazen-1-yl]-5-(diethylamino)-4-methoxyphenyl}acetamide",CCN(CC)c1cc(NC(C)=O)c(cc1OC)N=Nc2c(Cl)cc(cc2[N+]([O-])=O)[N+]([O-])=O,-4.6673277833
decahydronaphthalene,C1CCC2CCCCC2C1,-4.1406777053
dibutyltin maleate,CCCC[Sn++]CCCC.[O-]C(=O)\C=C\C([O-])=O,-4.5403282232
hydroxyzincio 2-methylprop-2-enoate,CC(=C)C(=O)O[Zn]O,-4.2239603591
"propane-1,2-diyl bisoctadec-9-enoate",CCCCCCCC\C=C/CCCCCCCC(=O)OCC(C)OC(=O)CCCCCCC\C=C/CCCCCCCC,-4.7817560925
"4',4'''-azobis[N-(9,10-dihydro-9,10-dioxo-1-anthryl)[1,1'-biphenyl]-4-carboxamide]",O=C(Nc1cccc2C(=O)c3ccccc3C(=O)c12)c4ccc(cc4)c5ccc(cc5)N=Nc6ccc(cc6)c7ccc(cc7)C(=O)Nc8cccc9C(=O)c%10ccccc%10C(=O)c89,-5.716458279299999
Di-p-xylylene,C1Cc2ccc(CCc3ccc1cc3)cc2,-5.169478497
Violanthrone,O=C1c2ccccc2c3ccc4c5ccc6c7ccccc7C(=O)c8ccc(c9ccc1c3c49)c5c68,-5.5133127462
Vat green 1,COc1cc2c3ccccc3C(=O)c4ccc5c6ccc7C(=O)c8ccccc8c9cc(OC)c(c1c5c24)c6c79,-5.5991706951
"Alcohols, C12-15-branched and linear",CCCCC[C@H](CCC)CCCO,-5.1563604082
"1,1-bis(tert-butylperoxy)cyclohexane",CC(C)(C)OOC1(CCCCC1)OOC(C)(C)C,-5.386213837300001
"(2E,4E,6E,8E)-3,7-dimethyl-9-(2,6,6-trimethylcyclohex-1-en-1-yl)nona-2,4,6,8-tetraen-1-yl hexadecanoate",CCCCCCCCCCCCCCCC(=O)OC/C=C(C)/C=C/C=C(C)/C=C/C1=C(C)CCCC1(C)C,-5.7200550602
(2R)-2-[4-[5-(trifluoromethyl)pyridin-2-yl]oxyphenoxy]propanoic acid,C[C@@H](Oc1ccc(Oc2ccc(cn2)C(F)(F)F)cc1)C(O)=O,-2.6227956692
"1,1-bis[(2-methylbutan-2-yl)peroxy]cyclohexane",CCC(C)(C)OOC1(CCCCC1)OOC(C)(C)CC,-5.4600374185
"1,2-Dihydro-2,2,4-trimethylquinoline, oligomers",CC1=CC(C)(C)Nc2ccccc12,-5.238695803500001
1-chlorooctane,CCCCCCCCCl,-5.1722437893
"2,2,4,4,6,6,8,8,10,10,12,12-dodecamethyl-3,5,7,9,11-pentaoxa-2,4,6,8,10,12-hexasilatridecane",C[Si](C)(C)O[Si](C)(C)O[Si](C)(C)O[Si](C)(C)O[Si](C)(C)O[Si](C)(C)C,-5.661813631699999
"2,2-bis[(sulfanyloxy)methyl]butyl phosphinite 1,5-bis[2-methyl-3-(sulfanyloxy)-2-[(sulfanyloxy)methyl]propyl] pentanedioate",CCC(COP)(COS)COS.CC(COS)(COS)COC(=O)CCCC(=O)OCC(C)(COS)COS,-5.8419473099
Tetra(10B)boron carbide,B12B3B4B1C234,-4.7424030214
"2-(2H-1,2,3-benzotriazol-2-yl)-4-(2,4,4-trimethylpentan-2-yl)phenol",CC(C)(C)CC(C)(C)c1ccc(O)c(c1)n2nc3ccccc3n2,-5.5097937283
"2-(2H-1,2,3-benzotriazol-2-yl)-4-methylphenol",Cc1ccc(O)c(c1)n2nc3ccccc3n2,-5.3526667277
"2-[(2-{[3-(3,5-di-tert-butyl-4-hydroxyphenyl)propanoyl]oxy}ethyl)sulfanyl]ethyl 3-(3,5-di-tert-butyl-4-hydroxyphenyl)propanoate",CC(C)(C)c1cc(CCC(=O)OCCSCCOC(=O)CCc2cc(c(O)c(c2)C(C)(C)C)C(C)(C)C)cc(c1O)C(C)(C)C,-5.8081724723
2-[2-(2-{[3-(3-tert-butyl-4-hydroxy-5-methylphenyl)propanoyl]oxy}ethoxy)ethoxy]ethyl 3-(3-tert-butyl-4-hydroxy-5-methylphenyl)propanoate,Cc1cc(CCC(=O)OCCOCCOCCOC(=O)CCc2cc(C)c(O)c(c2)C(C)(C)C)cc(c1O)C(C)(C)C,-5.7684649408
2-benzoyl-5-(octyloxy)phenol,CCCCCCCCOc1ccc(c(O)c1)C(=O)c2ccccc2,-5.5137980476
2-butyloctan-1-ol,CCCCCCC(CO)CCCC,-5.2703037605
2-decyltetradecan-1-ol,CCCCCCCCCCCCC(CO)CCCCCCCCCC,-5.549815883300001
2-dodecylhexadecan-1-ol,CCCCCCCCCCCCCCC(CO)CCCCCCCCCCCC,-5.6135997753
2-ethyl-1-{[(2-ethylhexyl)oxy]methoxy}hexane,CCCCC(CC)COCOCC(CC)CCCC,-5.4353234735
2-hexyldecan-1-ol,CCCCCCCCC(CO)CCCCCC,-5.3846168146
"2-tert-butyl-6-(5-chloro-2H-1,2,3-benzotriazol-2-yl)-4-methylphenol",Cc1cc(n2nc3ccc(Cl)cc3n2)c(O)c(c1)C(C)(C)C,-5.4994176265
2-tert-butyl-6-[(3-tert-butyl-5-ethyl-2-hydroxyphenyl)methyl]-4-ethylphenol,CCc1cc(Cc2cc(CC)cc(c2O)C(C)(C)C)c(O)c(c1)C(C)(C)C,-5.5665093776
2-tetradecyloctadecan-1-ol,CCCCCCCCCCCCCCCCC(CO)CCCCCCCCCCCCCC,-5.66920434
3-octadecyl-1-{3-[(octadecylcarbamoyl)amino]propyl}urea,CCCCCCCCCCCCCCCCCCNC(=O)NCCCNC(=O)NCCCCCCCCCCCCCCCCCC,-5.8229189425
4-amino-N-(2-ethylhexyl)benzene-1-sulfonamide,CCCCC(CC)CN[S](=O)(=O)c1ccc(N)cc1,-5.453967766799999
"5-tert-butyl-2-[5-(5-tert-butyl-1,3-benzoxazol-2-yl)thiophen-2-yl]-1,3-benzoxazole",CC(C)(C)c1ccc2oc(nc2c1)c3sc(cc3)c4oc5ccc(cc5n4)C(C)(C)C,-5.634046793
6-[3-(decanoyloxy)-2-[(heptanoyloxy)methyl]-2-[(octanoyloxy)methyl]propoxy]-6-oxohexanoic acid,CCCCCCCCCC(O)=O.CCCCCCCC(O)=O.CCCCCC(O)=O.CCC(CO)(CO)CO.OC(=O)CCCCC(O)=O,-5.8530645557000005
Pigment Red 224,O=C1OC(=O)c2ccc3c4ccc5C(=O)OC(=O)c6ccc(c7ccc1c2c37)c4c56,-5.5936426625
"O,O,O-tris(4-nitrophenyl) thiophosphate",[O-][N+](=O)c1ccc(O[P](=S)(Oc2ccc(cc2)[N+]([O-])=O)Oc3ccc(cc3)[N+]([O-])=O)cc1,-5.6788341975
barium(2+) ion 4-[(E)-2-(5-chloro-4-methyl-2-sulfonatophenyl)diazen-1-yl]-3-hydroxynaphthalene-2-carboxylate,[Ba++].Cc1cc(c(N\N=C/2C(=O)C(=Cc3ccccc23)C([O-])=O)cc1Cl)[S]([O-])(=O)=O,-5.745185694400001
barium(2+) ion bis(2-[(E)-2-(2-hydroxynaphthalen-1-yl)diazen-1-yl]naphthalene-1-sulfonate),[Ba++].[O-][S](=O)(=O)c1c(N\N=C\2C(=O)C=Cc3ccccc23)ccc4ccccc14.[O-][S](=O)(=O)c5c(N\N=C\6C(=O)C=Cc7ccccc67)ccc8ccccc58,-5.9504281438
bis(11-methyldodecyl) phthalate,CC(C)CCCCCCCCCCOC(=O)c1ccccc1C(=O)OCCCCCCCCCCC(C)C,-5.724958731699999
calcium bis[2-[(2-hydroxynaphthyl)azo]naphthalenesulphonate],[Ca++].[O-][S](=O)(=O)c1c(N\N=C\2C(=O)C=Cc3ccccc23)ccc4ccccc14.[O-][S](=O)(=O)c5c(N\N=C\6C(=O)C=Cc7ccccc67)ccc8ccccc58,-5.9003015698
diindium trioxide,[O--].[O--].[O--].[In+3].[In+3],-5.443471085900001
diisotridecyl adipate,CC(C)CCCCCCCCCCOC(=O)CCCCC(=O)OCCCCCCCCCCC(C)C,-5.708288296799999
docosan-1-ol,CCCCCCCCCCCCCCCCCCCCCCO,-5.5140281479
dodecyl 3-{[3-(dodecyloxy)-3-oxopropyl]sulfanyl}propanoate,CCCCCCCCCCCCOC(=O)CCSCCC(=O)OCCCCCCCCCCCC,-5.711686621799999
ethyl 4-[[(methylphenylamino)methylene]amino]benzoate,CCOC(=O)c1ccc(cc1)N=CN(C)c2ccccc2,-5.4507770249
hexadecyl hexadecyloxy dicarbonate,CCCCCCCCCCCCCCCCOC(=O)OOC(=O)OCCCCCCCCCCCCCCCC,-5.7565570001
hexadecyl(trimethoxy)silane,CCCCCCCCCCCCCCCC[Si](OC)(OC)OC,-5.5398636413
hexanal; pentanal; propanedial,CCCCCC=O.CCCCC=O.O=CCC=O,-5.4122219139
hydrate iron potassium,[O--].[O--].[K+].[Fe+3],-5.1036019152
hydrate lithium potassium titanium,[Li].O.[K].[Ti],-5.0489115819
icosan-1-ol,CCCCCCCCCCCCCCCCCCCCO,-5.4750243489
manganese(3+) ion ammonium (phosphonatooxy)phosphonate,[NH4+].[Mn+3].[O-][P]([O-])(=O)O[P]([O-])([O-])=O,-5.392552750599999
octadecan-1-ol,CCCCCCCCCCCCCCCCCCO,-5.432168875
propan-2-yl dodecanoate,CCCCCCCCCCCC(=O)OC(C)C,-5.384537990399999
tetracosan-1-ol,CCCCCCCCCCCCCCCCCCCCCCCCO,-5.549815883300001
undec-3-ene,CCCCCCC\C=C\CC,-5.1883574821
vinyl laurate,CCCCCCCCCCCC(=O)OC=C,-5.3547996853
zinc(2+) ion bis((dibutylcarbamothioyl)sulfanide),[Zn++].CCCCN(CCCC)C([S-])=S.CCCCN(CCCC)C([S-])=S,-5.6759230824
"1,4-xylene 4-(methoxycarbonyl)benzoic acid 4-methylbenzoic acid benzoic acid 1,2,4-trimethyl benzene-1,2,4-tricarboxylate 1,2-dimethyl 4-methylbenzene-1,2-dicarboxylate 1,2-dimethyl benzene-1,2-dicarboxylate 1,3-dimethyl benzene-1,3-dicarboxylate 1,4-dimethyl 2-[4-(methoxycarbonyl)phenyl]benzene-1,4-dicarboxylate 1,4-dimethyl benzene-1,4-dicarboxylate 1-[4-(methoxycarbonyl)phenyl]methyl 4-methyl benzene-1,4-dicarboxylate 1-methyl 4-(4-methylphenyl)methyl benzene-1,4-dicarboxylate 2,6-dimethyl 9-oxo-9H-fluorene-2,6-dicarboxylate [4-(methoxycarbonyl)phenyl]methyl 4-methylbenzoate methyl 1-methyl-6-oxo-6H-benzo[c]chromene-4-carboxylate methyl 2-[4-(methoxycarbonyl)phenyl]-4-methylbenzoate methyl 2-[4-(methoxycarbonyl)phenyl]benzoate methyl 3-[4-(methoxycarbonyl)phenyl]benzoate methyl 4-(dimethoxymethyl)benzoate methyl 4-(hydroxymethyl)benzoate methyl 4-[4-(methoxycarbonyl)phenyl]benzoate methyl 4-formylbenzoate methyl 4-methylbenzoate methyl benzoate",COC(OC)c1ccc(cc1)C(=O)OC.COC(=O)c2ccccc2.COC(=O)c3ccc(C)cc3.COC(=O)c4ccc(CO)cc4.COC(=O)c5ccc(COC(=O)c6ccc(C)cc6)cc5.COC(=O)c7ccc(COC(=O)c8ccc(cc8)C(=O)OC)cc7.COC(=O)c9ccc(C=O)cc9.COC(=O)c%10ccc(cc%10)C(O)=O.COC(=O)c%11ccc(cc%11)C(=O)OC.COC(=O)c%12ccc(cc%12)C(=O)OCc%13ccc(C)cc%13.COC(=O)c%14ccc(cc%14)c%15ccc(cc%15)C(=O)OC.COC(=O)c%16ccc(cc%16)c%17cccc(c%17)C(=O)OC.COC(=O)c%18ccc(cc%18)c%19ccccc%19C(=O)OC.COC(=O)c%20ccc(cc%20)c%21cc(C)ccc%21C(=O)OC.COC(=O)c%22ccc(cc%22)c%23cc(ccc%23C(=O)OC)C(=O)OC.COC(=O)c%24cccc(c%24)C(=O)OC.COC(=O)c%25ccc(C(=O)OC)c(c%25)C(=O)OC.COC(=O)c%26ccc%27c(c%26)C(=O)c%28ccc(cc%27%28)C(=O)OC.COC(=O)c%29ccc(C)c%30c%29OC(=O)c%31ccccc%30%31.COC(=O)c%32ccccc%32C(=O)OC.COC(=O)c%33ccc(C)cc%33C(=O)OC.Cc%34ccc(C)cc%34.Cc%35ccc(cc%35)C(O)=O.OC(=O)c%36ccccc%36,-6.7316777728
"2-[3-(heptan-3-yl)-1,2-oxazolidin-2-yl]ethyl N-{6-[({2-[3-(heptan-3-yl)-1,2-oxazolidin-2-yl]ethoxy}carbonyl)amino]hexyl}carbamate",CCCCC(CC)C1CCON1CCOC(=O)NCCCCCCNC(=O)OCCN2OCCC2C(CC)CCCC,-5.7905608237
methyl 3-[3-(benzotriazol-2-yl)-5-tert-butyl-4-hydroxyphenyl]propanoate,COC(=O)CCc1cc(n2nc3ccccc3n2)c(O)c(c1)C(C)(C)C,-6.849323575900001
3-octadecyl-1-[4-({4-[(octadecylcarbamoyl)amino]phenyl}methyl)phenyl]urea,CCCCCCCCCCCCCCCCCCNC(=O)Nc1ccc(Cc2ccc(NC(=O)NCCCCCCCCCCCCCCCCCC)cc2)cc1,-5.9429946413
"2,5,7,8-tetramethyl-2-(4,8,12-trimethyltridecyl)-3,4-dihydro-2H-1-benzopyran-6-yl acetate",CC(C)CCC[C@@H](C)CCC[C@@H](C)CCC[C@]1(C)CCc2c(C)c(OC(C)=O)c(C)c(C)c2O1,-5.7715452251
"1,4-bis(iodomethyl)cyclohexane",ICC1CCC(CI)CC1,-5.7481975718
"[1,3(or 1,4)-phenylenebis(1-methylethylidene)]bis[tert-butyl] peroxide",CC(C)(C)OOC(C)(C)c1ccc(cc1)C(C)(C)OOC(C)(C)C,-5.7371515873000005
Boehmite (Al(OH)O),[OH-].[O--].[Al+3],-5.0252479516
"1,1'-disulfanediyldioctadecane",CCCCCCCCCCCCCCCCCCSSCCCCCCCCCCCCCCCCCC,-6.057758885499999
2-decyltetradecanoic acid,CCCCCCCCCCCCC(CCCCCCCCCC)C(O)=O,-5.867639521599999
ZIRCONIUM,[Zr],-5.35804912
"2,2,4,6,6-pentamethyl-4-[(trimethylsilyl)oxy]-3,5-dioxa-2,4,6-trisilaheptane",C[Si](C)(C)O[Si](C)(O[Si](C)(C)C)O[Si](C)(C)C,-5.9360261722
N-(2-ethoxyphenyl)-N'-[4-(10-methylundecyl)phenyl]ethanediamide,CCOc1ccccc1NC(=O)C(=O)Nc2ccc(CCCCCCCCCC(C)C)cc2,-6.0994494699
Silicon nitride,N12[Si]34N5[Si]16N3[Si]25N46,-5.6698930776
"2-ethylhexyl 3,5,5-trimethylhexanoate",CCCCC(CC)COC(=O)CC(C)CC(C)(C)C,-5.9549769717
calcium titanium trioxide,[O--].[O--].[O--].[Ca++].[Ti+4],-5.6562324003
"heptyl 3-[3-(2H-1,2,3-benzotriazol-2-yl)-5-tert-butyl-4-hydroxyphenyl]propanoate nonyl 3-[3-(2H-1,2,3-benzotriazol-2-yl)-5-tert-butyl-4-hydroxyphenyl]propanoate octyl 3-[3-(2H-1,2,3-benzotriazol-2-yl)-5-tert-butyl-4-hydroxyphenyl]propanoate",CCC(C)CCCOC(=O)CCc1cc(n2nc3ccccc3n2)c(O)c(c1)C(C)(C)C,-6.1639401792
dicalcium (phosphonatooxy)phosphonate,[Ca++].[Ca++].[O-][P]([O-])(=O)O[P]([O-])([O-])=O,-5.998459357100001
"4-[(4-hydroxy-9,10-dioxo-9,10-dihydroanthracen-1-yl)amino]phenyl methanesulfonate",C[S](=O)(=O)Oc1ccc(Nc2ccc(O)c3C(=O)c4ccccc4C(=O)c23)cc1,-6.214227984500001
"nickel(2+) ion butan-1-amine 2-{[2-oxido-5-(2,4,4-trimethylpentan-2-yl)phenyl]sulfanyl}-4-(2,4,4-trimethylpentan-2-yl)benzen-1-olate",[Ni++].CCCCN.CC(C)(C)CC(C)(C)c1ccc([O-])c(Sc2cc(ccc2[O-])C(C)(C)CC(C)(C)C)c1,-6.4460405944
4-(2-{3-[2-(4-hydroxyphenyl)propan-2-yl]phenyl}propan-2-yl)phenol,CC(Cc1cccc(CC(C)c2ccc(O)cc2)c1)c3ccc(O)cc3,-6.238635640399999
N-(3-methylphenyl)-4-{4-[(3-methylphenyl)(phenyl)amino]phenyl}-N-phenylaniline,Cc1cccc(c1)N(c2ccccc2)c3ccc(cc3)c4ccc(cc4)N(c5ccccc5)c6cccc(C)c6,-6.4121983796
N-methyl-N-phenyl{[methyl(phenyl)carbamothioyl]disulfanyl}carbothioamide,CN(C(=S)SSC(=S)N(C)c1ccccc1)c2ccccc2,-6.2607699922
"N-{2-[(2-cyano-4,6-dinitrophenyl)diazenyl]-5-(diethylamino)phenyl}acetamide",CCN(CC)c1ccc(N=Nc2c(cc(cc2[N+]([O-])=O)[N+]([O-])=O)C#N)c(NC(C)=O)c1,-6.327772594400001
"Phenol, 4-methyl-, reaction products with dicyclopentadiene and isobutylene",CC(C)=C.Cc1ccc(O)cc1.C2C=CC3C4CC(C=C4)C23,-6.1709273189
"Sorbitan monolaurate, ethoxylated",CCCCCCCCCCCC(=O)OCCOCC(OCCO)C1OCC(OCCO)C1OCCO,-6.417202563200001
16-methylheptadecan-1-ol,CC(C)CCCCCCCCCCCCCCCO,-6.256077615900001
"2,3-bis(acetyloxy)propyl dodecanoate",CCCCCCCCCCCC(=O)OCC(COC(C)=O)OC(C)=O,-6.378367614400001
"2-Butenedioic acid (E)-, di-C12-18-alkyl esters",CCCCCCCCCCCCCCCOC(=O)/C=C/C(=O)OCCCCCCCCCCCCCCC,-6.5537875846
"2-Butenedioic acid (E)-, di-C8-18-alkyl esters",CCCCCCCCOC(=O)\C=C\C(=O)OCCCCCCCC,-6.356030959
bis(4-isocyanatophenyl) [(4-isocyanatophenyl)sulfanyl]phosphonate,O=C=Nc1ccc(O[P](=S)(Oc2ccc(cc2)N=C=O)Oc3ccc(cc3)N=C=O)cc1,-6.4917192558000005
bis(8-methylnonyl) but-2-enedioate,CC(C)CCCCCCCOC(=O)\C=C\C(=O)OCCCCCCCC(C)C,-6.4222745911
didodecyl but-2-enedioate,CCCCCCCCCCCCOC(=O)\C=C\C(=O)OCCCCCCCCCCCC,-6.4797384219000005
propan-2-yl (9Z)-octadec-9-enoate,CCCCCCCC\C=C/CCCCCCCC(=O)OC(C)C,-6.3351890163
"2,2-bis(hydroxymethyl)propane-1,3-diol; decanoic acid; heptanoic acid; octanoic acid",CCCCCCCCCC(O)=O.CCCCCCCC(O)=O.CCCCCCC(O)=O.OCC(CO)(CO)CO,-6.6194034302
"2,3,4-Tris(6-diazo-5,6-dihydro-5-oxo-1-naphthalenesulfonyloxy)benzophenone",[N-]=[N+]=C1C=Cc2c(cccc2[S](=O)(=O)Oc3ccc(C(=O)c4ccccc4)c(O[S](=O)(=O)c5cccc6C(=O)C(C=Cc56)=[N+]=[N-])c3O[S](=O)(=O)c7cccc8C(=O)C(C=Cc78)=[N+]=[N-])C1=O,-6.820895006900001
triethoxy(octyl)silane,CCCCCCCC[Si](OCC)(OCC)OCC,-6.327740788400001
12-hydroxy-N-[2-(12-hydroxyoctadecanamido)ethyl]octadecanamide,CCCCCCC(O)CCCCCCCCCCC(=O)NCCNC(=O)CCCCCCCCCCC(O)CCCCCC,-6.7352071916
"2-[4-(4-oxo-4H-3,1-benzoxazin-2-yl)phenyl]-4H-3,1-benzoxazin-4-one",O=C1OC(=Nc2ccccc12)c3ccc(cc3)C4=Nc5ccccc5C(=O)O4,-6.5170402935
(13Z)-docos-13-enamide,CCCCCCCC\C=C/CCCCCCCCCCCC(N)=O,-6.5283921465
"1,1',1''-methanetriyltris(4-isocyanatobenzene)",O=C=Nc1ccc(cc1)C(c2ccc(cc2)N=C=O)c3ccc(cc3)N=C=O,-6.5650965952
"1,2-Benzenedicarboxylic acid, di-C8-10-branched alkyl esters, C9-rich",CC(C)CCCCCCOC(=O)c1ccccc1C(=O)OCCCCCCC(C)C,-6.6218178985
"1,6-bis(2-ethylhexyl) hexanedioate",CCCCC(CC)COC(=O)CCCCC(=O)OCC(CC)CCCC,-6.5688749453
"1,6-bis(2-methylnonyl) hexanedioate",CC(C)CCCCCCCOC(=O)CCCCC(=O)OCCCCCCCC(C)C,-6.6301043221
"1,6-bis(7-methyloctyl) hexanedioate",CC(C)CCCCCCOC(=O)CCCCC(=O)OCCCCCCC(C)C,-6.6005678007
1-(octyloxy)octane,CCCCCCCCOCCCCCCCC,-6.3846168146
1-(vinyloxy)octadecane,CCCCCCCCCCCCCCCCCCOC=C,-6.4720818187
"2-(3,4-dihydroxyoxolan-2-yl)-2-hydroxyethyl 3-methylheptadecanoate",CC(C)CCCCCCCCCCCCCCC(O)=O.OC[C@H](O)[C@@H](O)[C@H](O)C(O)O,-6.6557423758
"2-ethylhexyl 2-cyano-3,3-diphenylprop-2-enoate",CCCCC(CC)COC(=O)C(C#N)=C(c1ccccc1)c2ccccc2,-6.5580902807
"2-fluoro-4-[4-(4-propylcyclohexyl)cyclohexyl]-1-(3,4,5-trifluorophenyl)benzene",CCCC1CCC(CC1)C2CCC(CC2)c3ccc(c(F)c3)c4cc(F)c(F)c(F)c4,-6.6360312962
2-octyldodecan-1-ol,CCCCCCCCCCC(CO)CCCCCCCC,-6.4750243489
Naphthalic anhydride,O=C1OC(=O)c2cccc3cccc1c23,-6.2970532498
"3-{[3-(3,5-di-tert-butyl-4-hydroxyphenyl)propanoyl]oxy}-2,2-bis({[3-(3,5-di-tert-butyl-4-hydroxyphenyl)propanoyl]oxy}methyl)propyl 3-(3,5-di-tert-butyl-4-hydroxyphenyl)propanoate",CC(C)(C)c1cc(CCC(=O)OCC(COC(=O)CCc2cc(c(O)c(c2)C(C)(C)C)C(C)(C)C)(COC(=O)CCc3cc(c(O)c(c3)C(C)(C)C)C(C)(C)C)COC(=O)CCc4cc(c(O)c(c4)C(C)(C)C)C(C)(C)C)cc(c1O)C(C)(C)C,-7.0710180803
"4-(2,4,4-trimethylpentan-2-yl)-N-[4-(2,4,4-trimethylpentan-2-yl)phenyl]aniline",CC(C)(C)CC(C)(C)c1ccc(Nc2ccc(cc2)C(C)(C)CC(C)(C)C)cc1,-6.5951201849
8-ethyl-9-methylheptadecane; 8-methyl-7-propylhexadecane,CCCCCCCCC(C)C(CC)CCCCCCC.CCCCCCCCC(C)C(CCC)CCCCCC,-6.7521345295
"N-[2-(2-heptadecyl-4,5-dihydro-1H-imidazol-1-yl)ethyl]octadecanamide; N-{2-[(2-octadecanamidoethyl)amino]ethyl}octadecanamide; bis(acetic acid)",CCCCCCCCCCCCCCCCCC(=O)NCCNCCNC(=O)CCCCCCCCCCCCCCCCC.CCCCCCCCCCCCCCCCCC(=O)NCCN1CCN=C1CCCCCCCCCCCCCCCCC.CC(O)=O.CC(O)=O,-7.138082494500001
N-[3-(dimethylamino)propyl]docosanamide,CCCCCCCCCCCCCCCCCCCCCC(=O)NCCCN(C)C,-6.6281415672
"Octadecan-1-ol, ethoxylated",CCCCCCCCCCCCCCCCCCOCC[O],-6.4963012647000005
Talc (Mg3H2(SiO3)4),[Mg++].[Mg++].[Mg++].O[Si]([O-])=O.O[Si]([O-])=O.[O-][Si]([O-])=O.[O-][Si]([O-])=O,-6.5789404760000005
"[phenyl(2,4,6-trimethylbenzoyl)phosphoryl](2,4,6-trimethylphenyl)methanone",Cc1cc(C)c(c(C)c1)C(=O)[P](=O)(C(=O)c2c(C)cc(C)cc2C)c3ccccc3,-6.6216674424
dialuminium(3+) ion dicalcium pentaoxidandiide,[O--].[O--].[O--].[O--].[O--].[Al+3].[Al+3].[Ca++].[Ca++],-6.3306470932000005
dimethoxybis(propan-2-yl)silane,CO[Si](OC)(C(C)C)C(C)C,-6.2463311334
dodecanoyl dodecaneperoxoate,CCCCCCCCCCCC(=O)OOC(=O)CCCCCCCCCCC,-6.6005678007
octyl (2R)-2-(4-chloro-2-methylphenoxy)propanoate,CCCCCCCCOC(=O)[C@@H](C)Oc1ccc(Cl)cc1C,-6.5143670911000005