Name,SMILES,Solubility
"17-Hydroxy-19-norpregn-4-ene-3,20-dione 17-acetate",CC(=O)O[C@@]1(CC[C@H]2[C@@H]3CCC4=CC(=O)CC[C@@H]4[C@H]3CC[C@]12C)C(C)=O,-4.9957539374
"2,5-dianilinoterephthalic acid",OC(=O)c1cc(Nc2ccccc2)c(cc1Nc3ccccc3)C(O)=O,-4.9857232877
benzyl (2E)-3-phenylprop-2-enoate,O=C(OCc1ccccc1)/C=C/c2ccccc2,-4.8207960263
"4,6-di(phenyl)-5H-1,3,5-triazin-2-one",O=C1N=C(NC(=N1)c2ccccc2)c3ccccc3,-5.4935852535
digadolinium trioxide,[O--].[O--].[O--].[Gd+3].[Gd+3],-5.0152363724
"1,5-dimethyl-1-vinylhex-4-en-1-yl 2-methylpropanoate",CC(C)C(=O)OC(C)(CCC=C(C)C)C=C,-4.8105849842
"(diphenylphosphoroso)(2,4,6-trimethylphenyl)methanone",Cc1cc(C)c(c(C)c1)C(=O)[P](=O)(c2ccccc2)c3ccccc3,-5.010576791
"3-[(2-ethylhexanoyl)oxy]-2,2-dimethylpropyl 2-ethylhexanoate",CCCCC(CC)C(=O)OCC(C)(C)COC(=O)C(CC)CCCC,-5.0206378696
titanium(4+) ion zirconium(4+) ion lead(2+) ion pentaoxidandiide,[O--].[O--].[O--].[O--].[O--].[Ti+4].[Zr+4].[Pb++],-5.0982221528
"ethyl 2,2-dimethyl-3-(2-methylprop-1-en-1-yl)cyclopropane-1-carboxylate",CCOC(=O)C1C(C=C(C)C)C1(C)C,-4.7652682741
N-(4-carbamoylphenyl)-4-nitrobenzamide,NC(=O)c1ccc(NC(=O)c2ccc(cc2)[N+]([O-])=O)cc1,-4.9367254155
"1-(6-tert-butyl-1,1-dimethyl-2,3-dihydro-1H-inden-4-yl)ethan-1-one",CC(=O)c1cc(cc2c1CCC2(C)C)C(C)(C)C,-4.8708662082
"N-(4-amino-3-methoxy-9,10-dioxo-9,10-dihydroanthracen-1-yl)-4-methylbenzene-1-sulfonamide",COc1cc(N[S](=O)(=O)c2ccc(C)cc2)c3C(=O)c4ccccc4C(=O)c3c1N,-5.1125700507
2-[(3-carboxy-2-oxidonaphthalen-1-yl)diazenyl]-4-chloro-5-methylbenzenesulfonate;manganese(2+),[H+].[Mn++].Cc1cc(c(cc1Cl)N=Nc2c([O-])c(cc3ccccc23)C([O-])=O)[S]([O-])(=O)=O,-5.1704010781
"2,5-bis[(4-methylphenyl)amino]terephthalic acid",Cc1ccc(Nc2cc(C(O)=O)c(Nc3ccc(C)cc3)cc2C(O)=O)cc1,-5.0705134819
"(Z)-N-(4-chloro-2,5-dimethoxyphenyl)-3-hydroxynaphthalene-2-carboximidic acid",COc1cc(NC(=O)c2cc3ccccc3cc2O)c(OC)cc1Cl,-5.0622701458
2-ethylhexyl 2-methylprop-2-enoate,CCCCC(CC)COC(=O)C(C)=C,-4.8059741607
3-(chloromethyl)heptane,CCCCC(CC)CCl,-4.6808820955
4-amino-N-(4-carbamoylphenyl)benzamide,NC(=O)c1ccc(NC(=O)c2ccc(N)cc2)cc1,-4.9156499936
"Alcohols, C12-13",C.CCCCCCCCCCCCO,-4.8148101896
10-(prop-2-enoyloxy)decyl prop-2-enoate,C=CC(=O)OCCCCCCCCCCOC(=O)C=C,-4.9608754545
17-hydroxy-1-methylandrostan-3-one,C[C@H]1CC(=O)C[C@@H]2CC[C@H]3[C@@H]4CC[C@H](O)[C@@]4(C)CC[C@@H]3[C@@]12C,-5.0064289581
"2,2,4,4-Tetramethyl-7-oxa-3,20-diazadispiro(5.1.11.2)heneicosan-21-one",CC1(C)CC2(CC(C)(C)N1)OC3(CCCCCCCCCCC3)NC2=O,-5.0846644385
"2,4-bis(2-methylbutan-2-yl)phenol",CCC(C)(C)c1ccc(O)c(c1)C(C)(C)CC,-4.892804854
2-ethylhexyl 2-{[bis({2-[(2-ethylhexyl)oxy]-2-oxoethyl}sulfanyl)(methyl)stannyl]sulfanyl}acetate,CCCCC(CC)COC(=O)CS[Sn](C)(SCC(=O)OCC(CC)CCCC)SCC(=O)OCC(CC)CCCC,-5.3942922935
oxydiethylene bis(chloroformate),ClC(=O)OCCOCCOC(Cl)=O,-4.8865490032
tris[oxalato(2-)]dilutetium,[Lu+3].[Lu+3].[O-]C(=O)C([O-])=O.[O-]C(=O)C([O-])=O.[O-]C(=O)C([O-])=O,-5.3110386285
(3-phenoxyphenyl)methanol,OCc1cccc(Oc2ccccc2)c1,-2.8258731416
azacyclotridecan-2-one,O=C1CCCCCCCCCCCN1,-2.8195043204
methyl 3-phenylacrylate,COC(=O)\C=C\c1ccccc1,-2.7343475301
"2-methyl-4,6-bis(methylsulfanyl)benzene-1,3-diamine; 4-methyl-2,6-bis(methylsulfanyl)benzene-1,3-diamine",CSc1cc(SC)c(N)c(C)c1N,-2.8569254583
"4-allyl-1,2-dimethoxybenzene",COc1ccc(\C=C\C)cc1OC,-2.7782267945
2-methylquinolin-8-ol,Cc1ccc2cccc(O)c2n1,-1.7306186153
cobalt(2+) bis[3-(3-ethylcyclopentyl)propanoate],[Co++].CCC1CCC(CCC([O-])=O)C1.CCC2CCC(CCC([O-])=O)C2,-3.1323831914
"3-[2,2-dimethyl-3-(3-prop-2-enoyloxypropoxy)propoxy]propyl prop-2-enoate",CC(C)(COCCCOC(=O)C=C)COCCCOC(=O)C=C,-3.0495421403
pentyl formate,CCCCCOC=O,-1.6020599913
"1,3-dimethyl benzene-1,3-dicarboxylate",COC(=O)c1cccc(c1)C(=O)OC,-2.825819918
ethenylbenzene,C=Cc1ccccc1,-2.5552696161000004
hexyl 2-methylprop-2-enoate,CCCCCCOC(=O)C(C)=C,-3.7554210341
"2,3,5,6-tetrachloropyridine",Clc1cc(Cl)c(Cl)nc1Cl,-3.8614246907
"4-naphthalen-2-yl-1,3-thiazol-2-amine",Nc1scc(n1)c2ccc3ccccc3c2,-4.849542252
2-benzylheptan-1-ol,CCCCCC(CO)Cc1ccccc1,-3.8432685623
decanal,CCCCCCCCCC=O,-3.7255255026
"(2E)-3,7-dimethylocta-2,6-dien-1-yl acetate",CC(=O)OC/C=C(C)/CCC=C(C)C,-3.8305001771
"4,8-dimethyldeca-4,9-dienal",CC(CC/C=C(C)/CCC=O)C=C,-3.7935760497
"methyl 2,2,2-trifluoroacetate",COC(=O)C(F)(F)F,-0.6479837034
3-ethoxy-4-hydroxybenzaldehyde,CCOc1cc(C=O)ccc1O,-1.7642022678
4-phenylbutan-2-one,CC(=O)CCc1ccccc1,-1.7160179957
"N-(4-chloro-2,5-dimethoxyphenyl)-3-oxobutanamide",COc1cc(NC(=O)CC(C)=O)c(OC)cc1Cl,-2.9792447784
3-phenylprop-2-en-1-yl acetate,CC(=O)OC\C=C\c1ccccc1,-2.7927245342
"[2-[2-oxo-5-(2,4,4-trimethylpentan-2-yl)-3H-1-benzofuran-3-yl]-4-(2,4,4-trimethylpentan-2-yl)phenyl] acetate",CC(=O)Oc1ccc(cc1C2C(=O)Oc3ccc(cc23)C(C)(C)CC(C)(C)C)C(C)(C)CC(C)(C)C,-6.6925825623
2-hydroxypropanoic acid - 5-{[(2-ethylhexyl)carbamoyl]oxy}-2-methylphenyl [2-(dimethylamino)ethyl]carbamate (1:1) (non-preferred name),CCCCC(CC)COC(=O)Nc1ccc(C)c(NC(=O)OCCN(C)C)c1.CC(O)C(O)=O,-0.2351938248
"2,6-dimethyloctan-2-ol",CCC(C)CCCC(C)(C)O,-2.7493446847000005
troclosene sodium,[Na+].ClN1C(=O)[N-]C(=O)N(Cl)C1=O,-0.8951600114
3-amino-4-hydroxybenzene-1-sulfonic acid,Nc1cc(ccc1O)[S](O)(=O)=O,-1.8297447369
"11,17,21-trihydroxypregn-4-ene-3,20-dione",C[C@]12CCC(=O)C=C1CC[C@H]3[C@@H]4CC[C@](O)(C(=O)CO)[C@@]4(C)C[C@H](O)[C@H]23,-3.1121092438
octadec-9-enoic acid - 2-aminoethanol (1:1),CCCCCCCC/C=C/CCCCCCCC(O)=O.NCCO,-3.0888344498
"2-methyl-4-(2,2,3-trimethylcyclopent-3-en-1-yl)butan-1-ol",CC(CO)CCC1CC=C(C)C1(C)C,-3.8427464064
"N,N-dimethyldodecanamide",CCCCCCCCCCCC(=O)N(C)C,-3.9093070505
4-tert-butylcyclohexan-1-ol,CC(C)(C)C1CCC(O)CC1,-3.1032621252
"N,N-dimethyltetradecan-1-amine",CCCCCCCCCCCCCCN(C)C,-3.9356925608
1-chloropropane,CCCCl,-1.4534068203
"Phosphorodithioic acid, mixed O,O-bis(1,3-dimethylbutyl and iso-Pr) esters, zinc salts",[Zn++].CC(C)CC(C)O[P]([S-])(=S)OC(C)C.CC(C)CC(C)O[P]([S-])(=S)OC(C)C,-2.3189749133
1-chloro-3-nitrobenzene,[O-][N+](=O)c1cccc(Cl)c1,-2.7612722995
1-(2-naphthyl)ethanone,CC(=O)c1ccc2ccccc2c1,-2.7964187192
"disodium 4-amino-6-{2-[4-({4-[2-(2,4-diaminophenyl)diazen-1-yl]phenyl}sulfamoyl)phenyl]diazen-1-yl}-5-hydroxy-3-[2-(4-nitrophenyl)diazen-1-yl]naphthalene-2,7-disulfonate",[Na+].[Na+].Nc1ccc(N=Nc2ccc(N[S](=O)(=O)c3ccc(cc3)N=Nc4c(O)c5c(N)c(N=Nc6ccc(cc6)[N+]([O-])=O)c(cc5cc4[S]([O-])(=O)=O)[S]([O-])(=O)=O)cc2)c(N)c1,-0.5256786207
"1,2-dichloropropane",CC(Cl)CCl,-1.6216647134
N-ethylaniline,CCNc1ccccc1,-1.6520779355
"1,1'-oxybis(3-methylbutane)",CC(C)CCOCCC(C)C,-3.7601070667
sodium 2-({2-amino-8-hydroxy-6-[(2-methylphenyl)sulfamoyl]-1-naphthyl}diazenyl)-5-[(chloroacetyl)amino]benzenesulfonate,[Na+].CN(c1ccccc1)[S](=O)(=O)C2=CC(=O)C3=C(NNc4ccc(NC(=O)CCl)cc4[S]([O-])(=O)=O)C(=N)C=CC3=C2,-4.3588570696
"1,2-dichloro-4-methylbenzene",Cc1ccc(Cl)c(Cl)c1,-3.7755457257
"4-amino-2,5-dimethoxy-N-phenylbenzenesulfonamide",COc1cc(c(OC)cc1N)[S](=O)(=O)Nc2ccccc2,-4.0576928644
4-hydroxy-3-(3-oxo-1-phenylbutyl)-2H-chromen-2-one,CC(=O)CC(c1ccccc1)C2=C(O)Oc3ccccc3C2=O,-3.0625087471
"(4-(4-aminophenyl)(4-iminocyclohexa-2,5-dienylidene)methyl)-2-methylaniline hydrochloride",[H+].[Cl-].CC1=CC(C=CC1=N)=C(c2ccc(N)cc2)c3ccc(N)cc3,-2.1054831912
tris(2-methylpropyl) phosphate,CC(C)CO[P](=O)(OCC(C)C)OCC(C)C,-3.0021546468
methyl 2-methylbenzoate,COC(=O)c1ccccc1C,-1.7566476759
2-methylprop-1-ene,CC(C)=C,-2.3290690398
1-(acetyloxy)but-3-en-2-yl acetate,CC(=O)OC[C@@H](OC(C)=O)C=C,-0.8176814122
3-aminophenol,Nc1cccc(O)c1,-0.6229628479
"2-[2-ethoxy-5-(4-ethylpiperazin-1-yl)sulfonylphenyl]-5-methyl-7-propyl-1H-imidazo[5,1-f][1,2,4]triazin-4-one",CCCc1nc(C)c2n1NC(=NC2=O)c3cc(ccc3OCC)[S](=O)(=O)N4CCN(CC)CC4,-4.8438678664
(9E)-N-[3-(dimethylamino)propyl]octadec-9-enamide,CCCCCCCC/C=C/CCCCCCCC(=O)NCCCN(C)C,-4.1492593891
"1,3-dichloro-2-methylbenzene",Cc1c(Cl)cccc1Cl,-3.7919361419
cyclododecanone,O=C1CCCCCCCCCCC1,-3.8458299965
"3,7-dimethyloct-6-en-1-yn-3-ol",CC(C)=CCCC(C)(O)C#C,-1.7720804309
4-methyl-3-nitrobenzoic acid,Cc1ccc(cc1[N+]([O-])=O)C(O)=O,-2.8480980227
3-amino-4-methoxybenzenesulfonic acid,COc1ccc(cc1N)[S](O)(=O)=O,-0.8997243446
"(3,4-dihydroxyphenyl)-phenylmethanone",Oc1ccc(cc1O)C(=O)c2ccccc2,-2.9226200497000003
"2-[(E)-2-{4-[ethyl(2-hydroxyethyl)amino]phenyl}diazen-1-yl]-6-methoxy-3-methyl-1,3-benzothiazol-3-ium acetate",CCN(CCO)c1ccc(cc1)N=Nc2sc3cc(OC)ccc3[n+]2C.CC([O-])=O,-0.2262726911
(4R)-4-methyl-2-propyloxan-4-yl acetate (4S)-4-methyl-2-propyloxan-4-yl acetate,CCCC1C[C@](C)(CCO1)OC(C)=O.CCCC2C[C@@](C)(CCO2)OC(C)=O,-2.2047232328
3-(aminomethyl)heptane,CCCCC(CC)CN,-1.7134804626
3-chloro-4-methylaniline,Cc1ccc(N)cc1Cl,-1.7531263116999998
"2-(2,4-dihydroxyphenyl)-3,5,7-trihydroxy-4H-chromen-4-one",Oc1ccc(c(O)c1)C2=C(O)C(=O)c3c(O)cc(O)cc3O2,-3.0824090581
"4-[1,1-bis(4-hydroxyphenyl)ethyl]phenol",CC(c1ccc(O)cc1)(c2ccc(O)cc2)c3ccc(O)cc3,-4.086559757
"2,4-dichloro-1-methylbenzene",Cc1ccc(Cl)cc1Cl,-3.8089694812
"(4-methoxy-2,2-dimethyl-3a,4,6,6a-tetrahydrofuro[3,4-d][1,3]dioxol-6-yl)methyl 4-methylbenzenesulfonate",COC1OC(CO[S](=O)(=O)c2ccc(C)cc2)C3OC(C)(C)OC13,-4.1564425332
1-methoxy-2-methylbenzene,COc1ccccc1C,-2.6890833932
"(2,4-dichlorophenyl)acetic acid",OC(=O)Cc1ccc(Cl)cc1Cl,-2.9191416399000003
2-(chloromethyl)oxirane; 4-[2-(4-hydroxyphenyl)propan-2-yl]phenol,CC(C)(c1ccc(O)cc1)c2ccc(O)cc2.ClCC3CO3,-5.0291347649
Zirconium propionate,[Zr+4].CCC([O-])=O,-2.8232791914
4-chlorobenzonitrile,Clc1ccc(cc1)C#N,-2.749354496
1-chloro-4-nitrobenzene,[O-][N+](=O)c1ccc(Cl)cc1,-2.8118286729000004
4-(propan-2-yl)benzaldehyde,CC(C)c1ccc(C=O)cc1,-2.7852565821
4-[(2-methylprop-2-enoyl)oxy]butyl 2-methylprop-2-enoate,CC(=C)C(=O)OCCCCOC(=O)C(C)=C,-2.969024542
1-(3-chlorophenyl)propan-1-one,CCC(=O)c1cccc(Cl)c1,-1.8467055699
2-(phenoxymethyl)oxirane,C1OC1COc2ccccc2,-1.7963921827
nonanedioic acid,OC(=O)CCCCCCCC(O)=O,-1.8944614494
"1,6-dioxacycloheptadecan-7-one",O=C1CCCCCCCCCCOCCCCO1,-4.0179591997
"3,7-dimethyloctanal",CC(C)CCCC(C)CC=O,-3.8064830067
"1,3-diphenylthiourea",S=C(Nc1ccccc1)Nc2ccccc2,-3.9716884266
"estr-5(10)-ene-3,17-dione",C[C@]12CC[C@H]3[C@@H](CCC4=C3CCC(=O)C4)[C@@H]1CCC2=O,-4.0549767292
1-bromopropane,CCCBr,-1.7107562487
1-chloro-4-methoxybenzene,COc1ccc(Cl)cc1,-2.779325494
Fluocortolone,C[C@@H]1C[C@H]2[C@@H]3C[C@H](F)C4=CC(=O)C=C[C@]4(C)[C@H]3[C@@H](O)C[C@]2(C)[C@H]1C(=O)CO,-3.2037371554000003
sodium 3-[(E)-2-[4-(phenylamino)phenyl]diazen-1-yl]benzene-1-sulfonate,[Na+].[O-][S](=O)(=O)c1cccc(c1)N=Nc2ccc(Nc3ccccc3)cc2,-1.2046860906
"3-methyl-1,1-diphenylurea",CNC(=O)N(c1ccccc1)c2ccccc2,-2.9839461582
biphenyl-2-amine,Nc1ccccc1c2ccccc2,-2.8611137345
1-{[bis(2-chloroethoxy)phosphoryl]oxy}-2-({[bis(2-chloroethoxy)phosphoryl]oxy}methyl)-3-chloro-2-(chloromethyl)propane,ClCCO[P](=O)(OCCCl)OCC(CCl)(CCl)CO[P](=O)(OCCCl)OCCCl,-3.4001753553
"cyclohexane-1,4-dicarboxylic acid",OC(=O)C1CCC(CC1)C(O)=O,-0.8723707236
2-(7-ethyl-1H-indol-3-yl)ethan-1-ol,CCc1cccc2c(CCO)c[nH]c12,-1.9153264103
"3-(1-ethoxyethoxy)-3,7-dimethylocta-1,6-diene",CCOC(C)OC(C)(CCC=C(C)C)C=C,-3.9764017843
diphenylmethanone,O=C(c1ccccc1)c2ccccc2,-3.882202908
1-cyclohexylethyl butanoate,CCCC(=O)OC(C)C1CCCCC1,-3.9207588975
"2-ethyl-3-hydroxy-2-[2-(6-methoxy-3,4-dihydronaphthalen-1(2H)-ylidene)ethyl]cyclopentanone",CCC1(CC=C2CCCc3cc(OC)ccc23)C(O)CCC1=O,-4.1227687236
butylbenzene,CCC(C)c1ccccc1,-3.7586078484
"sodium 1-amino-4-[(3-acetamidophenyl)amino]-9,10-dioxo-9,10-dihydroanthracene-2-sulfonate",[Na+].CC(=O)Nc1cccc(Nc2cc(c(N)c3C(=O)c4ccccc4C(=O)c23)[S]([O-])(=O)=O)c1,-4.3079108614
1-methyl-1-(4-methylcyclohex-3-en-1-yl)ethyl acetate,CC(=O)OC(C)(C)C1CCC(=CC1)C,-3.931170339
"3,7,11-trimethyldodeca-1,6,10-trien-3-ol,mixed isomers",CC(C)=CCC\C(C)=C\CCC(C)(O)C=C,-3.9853522661
6-[(2-methylprop-2-enoyl)oxy]hexyl 2-methylprop-2-enoate,CC(=C)C(=O)OCCCCCCOC(=O)C(C)=C,-4.0436629248
4-(trifluoromethyl)aniline,Nc1ccc(cc1)C(F)(F)F,-2.8473301434
benzyltriethylazanium chloride,[Cl-].CC[N+](CC)(CC)Cc1ccccc1,-0.0072656636
disodium decanedioate,[Na+].[Na+].[O-]C(=O)CCCCCCCCC([O-])=O,-3.0410647254
2-(2-butoxyethoxy)ethyl 2-methylprop-2-enoate,CCCCOCCOCCOC(=O)C(C)=C,-2.0159485066
"4-[1,1,1,3,3,3-hexafluoro-2-(4-hydroxyphenyl)propan-2-yl]phenol",Oc1ccc(cc1)C(c2ccc(O)cc2)(C(F)(F)F)C(F)(F)F,-3.1795029693
1-(naphthalen-1-yl)ethan-1-one,CC(=O)c1cccc2ccccc12,-2.8846346488
4-(propan-2-yl)aniline,CC(C)c1ccc(N)cc1,-1.7858311962
4-methoxyaniline,COc1ccc(N)cc1,-0.7480293677
pentan-1-ol,CCCCCO,-0.6027996358
2-methoxy-5-nitroaniline,COc1ccc(cc1N)[N+]([O-])=O,-1.8832793564
prop-2-en-1-yl 2-methylprop-2-enoate,CC(=C)C(=O)OCC=C,-1.7584817871
"1,1,2,2,3,3,4,4-octafluoro-1,4-diiodobutane",FC(F)(I)C(F)(F)C(F)(F)C(F)(F)I,-3.314476262
"2,6-di-tert-butyl-4-(hydroxymethyl)phenol",CC(C)(C)c1cc(CO)cc(c1O)C(C)(C)C,-4.0127821042
[2-(3-methylbutoxy)ethyl]benzene,CC(C)CCOCCc1ccccc1,-3.9337357827
2-hydroxynaphthalene-1-carbaldehyde,Oc1ccc2ccccc2c1C=O,-3.8935675896
"5-nitropyrimidine-2,4,6-triamine",Nc1nc(N)c(N=O)c(N)n1,-3.8454729507
"1,3-dichloroprop-1-ene",ClC\C=C/Cl,-1.706753006
4-[4-[[4-chloro-3-(trifluoromethyl)phenyl]carbamoylamino]phenoxy]-N-methylpyridine-2-carboxamide,CNC(=O)c1cc(Oc2ccc(NC(=O)Nc3ccc(Cl)c(c3)C(F)(F)F)cc2)ccn1,-6.6672950838
2-methoxy-4-(methoxymethyl)phenol,COCc1ccc(O)c(OC)c1,-1.8934476814
3-pentyloxan-4-yl acetate,CCCCCC1COCCC1OC(C)=O,-2.9987958883
"4-[(E)-2-phenyldiazen-1-yl]benzene-1,3-diamine",Nc1ccc(N=Nc2ccccc2)c(N)c1,-2.9976655605
2-tert-Butyl-4-methoxyphenol,COc1ccc(O)c(c1)C(C)(C)C,-2.9274884417
4-piperidin-4-ylmorpholine,C1CC(CCN1)N2CCOCC2,-2.9027228224
triethoxy(2-methylpropyl)silane,CCO[Si](CC(C)C)(OCC)OCC,-3.016846171
"3,4-dihydroxy-5-nitrobenzaldehyde",Oc1cc(C=O)cc(c1O)[N+]([O-])=O,-1.937833911
ethyl 2-methyl-2-phenylpropanoate,CCOC(=O)C(C)(C)c1ccccc1,-3.045838317
4-methyl-2-nitroaniline,Cc1ccc(N)c(c1)[N+]([O-])=O,-1.860061225
dithioxomethane,S=C=S,-1.5594220963
methyl benzoate,COC(=O)c1ccccc1,-1.8117983509
"1,1-dimethoxyoctane",CCCCCCCC(OC)OC,-2.9180054187
"1,4,7,10-tetrazacyclododecane",C1CNCCNCCNCCN1,-0.0310204156
undec-10-enal,C=CCCCCCCCCC=O,-3.8931862
"1-methyl 1,2,2,6,6-pentamethylpiperidin-4-yl decanedioate bis(1,2,2,6,6-pentamethylpiperidin-4-yl) decanedioate",COC(=O)CCCCCCCCC(=O)OC1CC(C)(C)N(C)C(C)(C)C1.CN2C(C)(C)CC(CC2(C)C)OC(=O)CCCCCCCCC(=O)OC3CC(C)(C)N(C)C(C)(C)C3,-4.6112212345
2-[4-(2-methylpropyl)phenyl]propanoic acid,CC(C)Cc1ccc(cc1)C(C)C(O)=O,-3.992248354700001
sodium perchlorate,[Na+].[O-][Cl](=O)(=O)=O,-1.7665284956
"N-ethyl-N'-isopropyl-6-(methylsulfanyl)-1,3,5-triazine-2,4-diamine",CCNc1nc(NC(C)C)nc(SC)n1,-3.0470399572000004
1-(3-methoxyphenyl)ethan-1-one,COc1cccc(c1)C(C)=O,-1.8691073865
1H-benzimidazole,[nH]1cnc2ccccc12,-1.769197233
cyanuric acid,O=C1NC(=O)NC(=O)N1,-1.8076460763
"1-(3-chloropropyl)-2,3-dihydro-1H-1,3-benzodiazol-2-one",ClCCCN1C(=O)Nc2ccccc12,-3.0203942687
2-chloropyridine,Clc1ccccn1,-0.7541456686
"2,5-dichlorophenol",Oc1cc(Cl)ccc1Cl,-1.9111656018
dicopper(2+) ion disodium 2-[(E)-2-(2-oxido-5-sulfamoylphenyl)diazen-1-yl]-6-({5-oxido-6-[(E)-2-(2-oxido-5-sulfamoylphenyl)diazen-1-yl]-7-sulfonatonaphthalen-2-yl}amino)-3-sulfonatonaphthalen-1-olate,[Na+].[Na+].[Cu++].[Cu++].N[S](=O)(=O)c1ccc([O-])c(c1)N=Nc2c([O-])c3ccc(Nc4ccc5c([O-])c(N=Nc6cc(ccc6[O-])[S](N)(=O)=O)c(cc5c4)[S]([O-])(=O)=O)cc3cc2[S]([O-])(=O)=O,-2.7104892768
"1,10-bis(2-ethylhexyl) decanedioate",CCCCC(CC)COC(=O)CCCCCCCCC(=O)OCC(CC)CCCC,-3.3290743264
4-amino-5-chloro-N-[2-(diethylamino)ethyl]-2-methoxybenzamide,[H+].[Cl-].CCN(CC)CCNC(=O)c1cc(Cl)c(N)cc1OC,-3.2256490876
arsine,[As],-2.5735793664
Spironolactone intermediate,C[C@]12CCC(=O)C=C1CC[C@@H]3[C@@H]2CC[C@@]4(C)[C@H]3CC[C@@]45CCC(=O)O5,-4.2250037793
"2,2-bis({[(2-methylprop-2-enoyl)oxy]methyl})butyl 2-methylprop-2-enoate",CCC(COC(=O)C(C)=C)(COC(=O)C(C)=C)COC(=O)C(C)=C,-4.2262342969
3-methyl-4-propan-2-ylphenol,CC(C)c1ccc(O)cc1C,-2.854511354
1-Isopropyl-2-methoxy-4-methylcyclohexane,COC1CC(C)CCC1C(C)C,-3.9301744515
"disodium [2,7-dibromo-9-(2-carboxylatophenyl)-6-oxido-3-oxo-3H-xanthen-5-yl]mercurol",[Na+].[Na+].[O-]C(=O)c1ccccc1C2=C3C=C(Br)C(=O)C=C3Oc4c2cc(Br)c([O-])c4C5=CC=C[Hg]5,-4.5936830655000005
"3,7,7-trimethylbicyclo[4.1.0]hept-3-ene",CC1=CCC2C(C1)C2(C)C,-4.6704052705
(4Z)-cyclopentadec-4-en-1-one,O=C1CCCCCCCCCC\C=C/CC1,-4.8831871131
oxozinc,O=[Zn],-4.448167714599999
ditolyl ether,Cc1ccccc1Oc2ccccc2C,-4.8439277143
1-(propan-2-yl)naphthalene; 2-(propan-2-yl)naphthalene,CC(C)c1cccc2ccccc12,-4.7823935551
2-(dimethylamino)-2-[(4-methylphenyl)methyl]-1-[4-(morpholin-4-yl)phenyl]butan-1-one,CCC(Cc1ccc(C)cc1)(N(C)C)C(=O)c2ccc(cc2)N3CCOCC3,-5.1332331523
4-methoxy-3-nitro-N-phenylbenzamide,COc1ccc(cc1[N+]([O-])=O)C(=O)Nc2ccccc2,-4.9878258088
oxostibanyl stibinate,[O--].[O--].[O--].[Sb+3].[Sb+3],-5.0237548039
"1,3,5-triazinane-2,4,6-trione; 1,3,5-triazine-2,4,6-triamine",Nc1nc(N)nc(N)n1.O=C2NC(=O)NC(=O)N2,-4.9755135023
trizinc(2+) ion diphosphate,[Zn++].[Zn++].[Zn++].[O-][P]([O-])([O-])=O.[O-][P]([O-])([O-])=O,-5.1553472856
1-(4-chlorophenyl)-2-nitrobenzene,[O-][N+](=O)c1ccccc1c2ccc(Cl)cc2,-4.9372094561
"1-(2,3,8,8-tetramethyl-1,3,4,5,6,7-hexahydronaphthalen-2-yl)ethanone",CC1CC2=C(CC1(C)C(C)=O)C(C)(C)CCC2,-4.9417913147000005
Molybdenum 2-ethylhexanoate,[Mo].CCCCC(CC)C([O-])=O,-3.4351686053
"5-chloro-2-(2,4-dichlorophenoxy)aniline",Nc1cc(Cl)ccc1Oc2ccc(Cl)cc2Cl,-5.0452642864
dihexyl adipate,CCCCCCOC(=O)CCCCC(=O)OCCCCCC,-5.082600348500001
2-ethylhexyl 2-{[dibutyl({2-[(2-ethylhexyl)oxy]-2-oxoethyl}sulfanyl)stannyl]sulfanyl}acetate,CCCCC(CC)COC(=O)CS[Sn](CCCC)(CCCC)SCC(=O)OCC(CC)CCCC,-5.3942867121
strontium 4-[(5-chloro-4-methyl-2-sulphonatophenyl)azo]-3-hydroxy-2-naphthoate (1:1),[Sr++].Cc1c(Cl)cc(cc1[S](O)(=O)=O)N=Nc2c([O-])c(cc3ccccc23)C([O-])=O,-5.3065828462
"2-(3,8-dimethyl-1,2,3,4,5,6,7,8-octahydroazulen-5-yl)propan-2-yl acetate",CC1CCC(CC2=C1CCC2C)C(C)(C)OC(C)=O,-5.022602512200001
11-ethyl-5-methylpentadecanoic acid,CCCCC(CC)CCCCCC(C)CCCC(O)=O,-5.0561178371
"3,7,11-trimethyldodec-1-yn-3-ol",CC(C)CCCC(C)CCCC(C)(O)C#C,-4.953059618999999
gadolinium,[Gd],-4.7986506454
"1,1,2-trifluoro-2-(pentafluoroethoxy)ethene",FC(F)=C(F)OC(F)(F)C(F)(F)F,-4.9542967929
"2,4,4-trimethylpent-1-ene",CC(=C)CC(C)(C)C,-4.688326948
"N-phenylaniline; 2,4,4-trimethylpent-1-ene",CC(=C)CC(C)(C)C.N(c1ccccc1)c2ccccc2,-5.0876626154
aluminium(3+) ion magnesium(2+) ion sodium tris(oxosilanebis(olate)),[Na+].[Mg++].[Al+3].[O-][Si]([O-])=O.[O-][Si]([O-])=O.[O-][Si]([O-])=O,-5.1305146868
"2,5-bis(tert-butylperoxy)-2,5-dimethylhex-3-yne",CC(C)(C)OOC(C)(C)C#CC(C)(C)OOC(C)(C)C,-5.1145685291000005
2-butyloctanoic acid,CCCCCCC(CCCC)C(O)=O,-4.959305966700001
2-ethylhexyl 4-aminobenzoate,CCCCC(CC)COC(=O)c1ccc(N)cc1,-5.0543936585
calcium bis(12-hydroxyoctadecanoate),[Ca++].CCCCCCC(O)CCCCCCCCCCC([O-])=O.CCCCCCC(O)CCCCCCCCCCC([O-])=O,-5.463097207000001
calcium dioctadecanoate,[Ca++].CCCCCCCCCCCCCCCCCC([O-])=O.CCCCCCCCCCCCCCCCCC([O-])=O,-5.440787474
"butyl 4,4-bis(tert-butylperoxy)pentanoate",CCCCOC(=O)CCC(C)(OOC(C)(C)C)OOC(C)(C)C,-5.1898813447
"2,3-dichloro-1,4-naphthoquinone",ClC1=C(Cl)C(=O)c2ccccc2C1=O,-5.0237764060000005
"1,3,3-trimethyl-2-oxabicyclo[2.2.2]octane; 1,7,7-trimethylbicyclo[2.2.1]heptan-2-one; 2,2-dimethyl-3-methylidenebicyclo[2.2.1]heptane; 2,6,6-trimethylbicyclo[3.1.1]hept-2-ene",CC1=CCC2CC1C2(C)C.CC3(C)OC4(C)CCC3CC4.CC5(C)C6CCC(C6)C5=C.CC7(C)C8CCC7(C)C(=O)C8,-5.4383706051
3-hydroxy-N-(2-methoxyphenyl)naphthalene-2-carboxamide,[Na+].COc1ccccc1NC(=O)c2cc3ccccc3cc2[O-],-5.1765101856
oxocadmium,O=[Cd],-4.7863829333
1-chloro-2-(trichloromethyl)benzene,Clc1ccccc1C(Cl)(Cl)Cl,-5.0439330965
decyl acetate,CCCCCCCCCCOC(C)=O,-4.9857583021
2-{methyl[(nonafluorobutyl)sulfonyl]amino}ethyl acrylate,CN(CCOC(=O)C=C)[S](=O)(=O)C(F)(F)C(F)(F)C(F)(F)C(F)(F)F,-5.3087460931
2-phenylhexanenitrile,CCCCC(C#N)c1ccccc1,-3.6623544532
"1,1,1-TRICHLORO-2,2,2-TRIFLUOROETHANE",FC(F)(F)C(Cl)(Cl)Cl,-4.3331923932
2-methyldodecan-1-ol,CC(C)CCCCCCCCCCO,-5.0007940326
N-(2-ethoxyphenyl)-3-hydroxynaphthalene-2-carboxamide,CCOc1ccccc1NC(=O)c2cc3ccccc3cc2O,-5.1866018088
calcium oxozirconium,[CaH2].O=[Zr],-4.8730792601
diisopropyl sebacate,CC(C)OC(=O)CCCCCCCCC(=O)OC(C)C,-5.1559612143
hexyl 2-hydroxybenzoate,CCCCCCOC(=O)c1ccccc1O,-5.0458782076