Name,SMILES,Solubility
"hexasodium;(3~{Z})-5-[[4-morpholin-4-yl-6-[4-[(~{E})-2-[4-[[4-morpholin-4-yl-6-[[(7~{Z})-8-oxo-7-(phenylhydrazinylidene)-3,6-disulfonatonaphthalen-1-yl]amino]-1,3,5-triazin-2-yl]amino]-2-sulfonatophenyl]ethenyl]-3-sulfonatoanilino]-1,3,5-triazin-2-yl]amino]-4-oxo-3-(phenylhydrazinylidene)naphthalene-2,7-disulfonate",C1N(CCOC1)C2=NC(=NC(=N2)NC3=C4C(=O)/C(=N/NC5=CC=CC=C5)/C(=CC4=CC(=C3)S(=O)(=O)[O-])S(=O)(=O)[O-])NC6=CC(=C(C=C6)/C=C/C7=C(C=C(C=C7)NC8=NC(=NC(=N8)N9CCOCC9)NC1=C2C(=O)/C(=N/NC3=CC=CC=C3)/C(=CC2=CC(=C1)S(=O)(=O)[O-])S(=O)(=O)[O-])S(=O)(=O)[O-])S(=O)(=O)[O-].[Na+].[Na+].[Na+].[Na+].[Na+].[Na+],-1.144796153
3-acetyloxolan-2-one,CC(=O)C1CCOC1=O,0.3975093207
"sodium 3,5-bis(methoxycarbonyl)benzene-1-sulfonate",[Na+].COC(=O)c1cc(cc(c1)[S]([O-])(=O)=O)C(=O)OC,-0.9664819924
sodium chloride,[Na+].[Cl-],0.7343267611
dilithium pentanedioate,[Li+].[Li+].[O-]C(=O)CCCC([O-])=O,0.3427540765999999
"4-hydroxy-2,5-dimethyl-2,3-dihydrofuran-3-one",CC1OC(=C(O)C1=O)C,0.3906698962
5-benzoyl-4-hydroxy-2-methoxybenzene-1-sulfonic acid,[Na+].COc1cc(O)c(cc1[S]([O-])(=O)=O)C(=O)c2ccccc2,-0.022384851
"2,2,4-trimethylpentane-1,3-diol",CC(C)C(O)C(C)(C)CO,-0.6667259261999999
2-Ethylhexyl (2S)-2-hydroxypropanoate,CCCCC(CC)COC(=O)[C@H](C)O,-2.6735257097
cyclopentanone,O=C1CCCC1,0.5536775573
N-methylmethanaminium chloride,[H+].[Cl-].CNC,1.5657185919
hydrogen sulfide; manganese,S.[Mn],-4.1599117564
methyl formate,COC=O,0.6985937788
"trisodium 8-hydroxypyrene-1,3,6-trisulfonate",[Na+].[Na+].[Na+].Oc1cc(c2ccc3c4c(ccc1c24)c(cc3[S]([O-])(=O)=O)[S]([O-])(=O)=O)[S]([O-])(=O)=O,-0.242535631
"4-methyl-3a,4,7,7a-tetrahydro-2-benzofuran-1,3-dione",CC1C=CCC2C1C(=O)OC2=O,-0.7362684615999999
N-isopropyl-2-methylacrylamide,CC(C)NC(=O)C(C)=C,-0.6201428843
"disodium 2,2'-ethene-1,2-diylbis[5-({4-anilino-6-[(2-hydroxyethyl)amino]-1,3,5-triazin-2-yl}amino)benzenesulfonate]",[Na+].[Na+].OCCNc1nc(Nc2ccccc2)nc(Nc3ccc(\C=C\c4ccc(Nc5nc(NCCO)nc(Nc6ccccc6)n5)cc4[S]([O-])(=O)=O)c(c3)[S]([O-])(=O)=O)n1,-1.4592143997
2-(2-ethoxyethoxy)-2-methylpropane,CCOCCOC(C)(C)C,-0.6879152253
3-methoxybutyl acetate,COC(C)CCOC(C)=O,-0.6877845281999999
"Sulfuric acid, mono-C12-18-alkyl esters, sodium salts",[Na+].CCCCCCCCCCCCCCCO[S]([O-])(=O)=O,-1.042005529
carbamimidoylsulfinic acid,NC(=N)[S](O)=O,-0.5567928158
tert-butyl 2-methylpropaneperoxoate,CC(C)C(=O)OOC(C)(C)C,-1.6070025668
"(2,2-dimethoxyethyl)benzene",COC(Cc1ccccc1)OC,-1.6296186709
"1,3,5-triazine-2,4,6-triamine phosphate",Nc1nc(N)nc(N)n1.O[P](O)(O)=O,-1.7594101934
"2H,4H,4aH,5H,9bH-indeno[1,2-d][1,3]dioxine",C1OCC2Cc3ccccc3C2O1,-1.6560932729
"3-[(4-hydroxy-3-methoxyphenyl)methyl]pentane-2,4-dione",COc1cc(CC(C(C)=O)C(C)=O)ccc1O,-1.7863659491
"(2R,3R,4R,5S)-2-(hydroxymethyl)piperidine-3,4,5-triol",OC[C@H]1NC[C@H](O)[C@@H](O)[C@@H]1O,0.4043520428
diethyl chloromalonate,CCOC(=O)C(Cl)C(=O)OCC,-1.7209723549
sodium 6-amino-4-hydroxy-5-[(E)-2-[2-(trifluoromethyl)phenyl]diazen-1-yl]naphthalene-2-sulfonate,[Na+].[O-][S](=O)(=O)C1=CC(=O)C2=C(NNc3ccccc3C(F)(F)F)C(=N)C=CC2=C1,-2.0686300615
2-(2-{2-[(2-methylprop-2-enoyl)oxy]ethoxy}ethoxy)ethyl 2-methylprop-2-enoate,CC(=C)C(=O)OCCOCCOCCOC(=O)C(C)=C,-1.9005552518
4-[(4-amino-3-methylcyclohexyl)methyl]-2-methylcyclohexan-1-amine,CC1CC(CCC1N)CC2CCC(N)C(C)C2,-1.8210383613
"2,5-dimethylphenol",Cc1ccc(C)c(O)c1,-1.5375827569
"{[(2R,3S,4R,5R)-5-(6-amino-9H-purin-9-yl)-3,4-dihydroxyoxolan-2-yl]methoxy}phosphonic acid",Nc1ncnc2n(cnc12)C3OC(CO[P](O)(O)=O)C(O)C3O,-1.9953026194
"1,1,2-trichloroethane",ClCC(Cl)Cl,-1.5811040628
"2,3,5-trimethylbenzene-1,4-diol",Cc1cc(O)c(C)c(C)c1O,-1.6383266335
[2-(4-aminobenzenesulfonyl)ethoxy]sulfonic acid,Nc1ccc(cc1)[S](=O)(=O)CCO[S](O)(=O)=O,-1.9051186702
"tris(prop-2-en-1-yl)-1,3,5-triazinane-2,4,6-trione",C=CCN1C(=O)N(CC=C)C(=O)N(CC=C)C1=O,-1.8526019693
methyl 3-aminopyrazine-2-carboxylate,COC(=O)c1nccnc1N,-1.6422660516999998
"1,3,5-triazine-2,4,6-triamine",Nc1nc(N)nc(N)n1,-1.5592150485
1-nitroguanidine,NC(N)=N[N+]([O-])=O,-1.4858424644
2-(trifluoromethyl)aniline,Nc1ccccc1C(F)(F)F,-1.6756867087
1-[4-(4-hydroxyphenyl)piperazin-1-yl]ethan-1-one,CC(=O)N1CCN(CC1)c2ccc(O)cc2,-1.817914488
"4-(oxiran-2-ylmethoxy)-N,N-bis(oxiran-2-ylmethyl)aniline",C1OC1COc2ccc(cc2)N(CC3CO3)CC4CO4,-1.9192347247
1-aminoguanidine; carbonic acid,NN=C(N)N.OC(O)=O,-1.6153792849000002
methyl(naphthalen-1-ylmethyl)amine,CNCc1cccc2ccccc12,-1.7150988877000002
N-(2-methoxyphenyl)-3-oxobutanamide,COc1ccccc1NC(=O)CC(C)=O,-1.8059055211
2-(propan-2-yloxy)propane,CC(C)OC(C)C,-1.5165927583
2-bromopropane,CC(C)Br,-1.598518701
4-methylbenzene-1-sulfonamide,Cc1ccc(cc1)[S](N)(=O)=O,-1.7421953353
(ethylsulfanyl)ethane,CCSCC,-1.4680248268
6-methylhept-5-en-2-one,CC(C)=CCCC(C)=O,-1.6210489706
1-[2-(2-butoxyethoxy)ethoxy]butane,CCCCOCCOCCOCCCC,-1.862006084
2-isopropenyl-5-methylcyclohexanol,CC1CCC(C(O)C1)C(C)=C,-1.7111123645
2-methoxy-5-methylaniline,COc1ccc(C)cc1N,-1.6601758755
"2-phenyl-4,5-dihydro-1H-imidazole; benzene-1,2,4,5-tetracarboxylic acid",OC(=O)c1cc(C(O)=O)c(cc1C(O)=O)C(O)=O.C2CN=C(N2)c3ccccc3,-2.1253109845
4-chloroaniline,Nc1ccc(Cl)cc1,-1.628640918
5-methylheptan-3-one,CCC(C)CC(=O)CC,-1.630817582
aluminum tris(4-oxopent-2-en-2-olate),[Al+3].CC([O-])=CC(C)=O.CC([O-])=CC(C)=O.CC([O-])=CC(C)=O,-2.0338377464
chlorodifluoromethane,FC(F)Cl,-1.4597341592
"2-[[4,5-dihydro-3-methyl-5-oxo-1-[4-[[2-(sulphooxy)ethyl]sulphonyl]phenyl]-1H-pyrazol-4-yl]azo]naphthalene-1,5-disulphonic acid, potassium sodium salt",[Na+].[K+].CC1=NN(C(O)C1N=Nc2ccc3c(cccc3[S]([O-])(=O)=O)c2[S](O)(=O)=O)c4ccc(cc4)[S](=O)(=O)CCO[S]([O-])(=O)=O,-0.3928398265
"but-2-yne-1,4-diol",OCC#CCO,1.5363390032
"trisodium 8-{[(2E)-4-chloro-6-[ethyl(phenyl)amino]-1,2-dihydro-1,3,5-triazin-2-ylidene]amino}-2-[(E)-2-(1-sulfonaphthalen-2-yl)diazen-1-yl]-3,6-disulfonatonaphthalen-1-olate",[Na+].[Na+].[Na+].CCN(c1ccccc1)c2nc(Cl)nc(Nc3cc(cc4C=C(\C(=N/Nc5ccc6ccccc6c5[S]([O-])(=O)=O)C(=O)c34)[S]([O-])(=O)=O)[S]([O-])(=O)=O)n2,-0.4592355493
"sodium 3-[2-(1,5-dioxonaphthalen-2-yl)hydrazinyl]-4-hydroxybenzenesulfonate",[Na+].Oc1ccc(cc1NNC2=CC=C3C(=O)C=CC=C3C2=O)[S]([O-])(=O)=O,-0.9011960035
"N,N-bis(carboxymethyl)-L-glutamic acid",OC(=O)CCC(N(CC(O)=O)CC(O)=O)C(O)=O,0.0436038038999999
isopropenyl acetate,CC(=C)OC(C)=O,-0.5277513782
"1,2,3,6-tetrahydrophthalic anhydride",O=C1OC(=O)C2CC=CCC12,-0.7139217719
"3,5-dimethyl-1H-pyrazole",Cc1[nH]nc(C)c1,-0.5204744976
dipotassium 2-dodecanamidoacetate 2-tetradecanamidoacetate,[K+].[K+].CCCCCCCCCCCCCC(=O)NCC([O-])=O.CCCCCCCCCCCC(=O)NCC([O-])=O,-0.3429717
"(8R,9S,10R,14S)-13-ethyl-1,2,6,7,8,9,10,11,12,14,15,16-dodecahydrocyclopenta[a]phenanthrene-3,17-dione",CCC12CC[C@H]3[C@@H](CCC4=CC(=O)CC[C@H]34)[C@@H]1CCC2=O,-3.7327198893
2-amino-3-(phosphonooxy)propanoic acid,N[C@@H](CO[P](O)(O)=O)C(O)=O,-0.8149408723
"Benzenesulfonic acid, mono-C11-13-branched alkyl derivs., sodium salts",[Na+].CCCCC(CC)CCCCCc1ccc(cc1)[S]([O-])(=O)=O,-0.0969056512
"hexasodium 2-({4-[bis(2-hydroxyethyl)amino]-6-({4-[(E)-2-[4-({4-[bis(2-hydroxyethyl)amino]-6-[(2,5-disulfonatophenyl)amino]-1,3,5-triazin-2-yl}amino)-2-sulfonatophenyl]ethenyl]-3-sulfonatophenyl}amino)-1,3,5-triazin-2-yl}amino)benzene-1,4-disulfonate",[Na+].[Na+].[Na+].[Na+].[Na+].[Na+].OCCN(CCO)c1nc(Nc2ccc(\C=C\c3ccc(Nc4nc(Nc5cc(ccc5[S]([O-])(=O)=O)[S]([O-])(=O)=O)nc(n4)N(CCO)CCO)cc3[S]([O-])(=O)=O)c(c2)[S]([O-])(=O)=O)nc(Nc6cc(ccc6[S]([O-])(=O)=O)[S]([O-])(=O)=O)n1,-0.6924056004000001
dicaesium(1+) ion carbonate,[Cs+].[Cs+].[O-]C([O-])=O,0.9300687552
pivalic acid,CC(C)(C)C(O)=O,-0.5635618856
"1-(2-hydroxyethyl)-2,2,6,6-tetramethylpiperidin-4-ol",CC1(C)CC(O)CC(C)(C)N1CCO,-0.8598205529
diethyl(prop-2-yn-1-yl)amine,CCN(CC)CC#C,-0.6020131225
cobalt(2+) hydrogen citrate,[Co++].OC(=O)CC(O)(CC([O-])=O)C([O-])=O,-0.954573972
Cobaltous citrate,[Co++].[Co++].[Co++].OC(CC([O-])=O)(CC([O-])=O)C([O-])=O.OC(CC([O-])=O)(CC([O-])=O)C([O-])=O,-1.3025954999
barium(2+) ion dichloride,O.O.[Cl-].[Cl-].[Ba++],0.0418928153
"2-bromo-2-nitropropane-1,3-diol",OCC(Br)(CO)[N+]([O-])=O,0.1271308568
copper(+1) cation sulfide,[SH--].[Cu+].[Cu+],-4.2045730411
2-methyl-1H-imidazole,Cc1[nH]ccn1,0.5121363664999999
Sodium trimetaphosphate,[Na+].[Na+].[Na+].[O-][P]1(=O)O[P]([O-])(=O)O[P]([O-])(=O)O1,-0.062309467
oxoselane oxide,O=[Se]=O,1.3647745033
"1,3-dioxepane",C1CCOCOC1,0.4107896597
"pentasodium 4-amino-6-[(E)-2-{5-[(4-amino-6-chloro-1,3,5-triazin-2-yl)amino]-2-sulfonatophenyl}diazen-1-yl]-3-[(E)-2-(2,5-disulfonatophenyl)diazen-1-yl]-5-hydroxynaphthalene-2,7-disulfonate",[Na+].[Na+].[Na+].[Na+].[Na+].Nc1nc(Cl)nc(Nc2ccc(c(N\N=C/3C(=O)c4c(N)c(N=Nc5cc(ccc5[S]([O-])(=O)=O)[S]([O-])(=O)=O)c(cc4C=C3[S]([O-])(=O)=O)[S]([O-])(=O)=O)c2)[S]([O-])(=O)=O)n1,-0.5908005839
4-methylpent-3-en-2-one,CC(C)=CC(C)=O,-0.560826234
"disodium 3-[(E)-2-(5-chloro-2-hydroxyphenyl)diazen-1-yl]-4,5-dihydroxynaphthalene-2,7-disulfonate",[Na+].[Na+].Oc1ccc(Cl)cc1N\N=C/2C(=O)c3c(O)cc(cc3C=C2[S]([O-])(=O)=O)[S]([O-])(=O)=O,-1.2898086582
C.i.Basic Violet 11,[Cl-].CCOC(=O)c1ccccc1c2c3ccc(cc3[o+]c4cc(ccc24)N(CC)CC)N(CC)CC,-1.2801897062
4-chlorophenol,Oc1ccc(Cl)cc1,-0.6876597172
methacrylonitrile,CC(=C)C#N,-0.4067085165999999
2-methylphenol,Cc1ccccc1O,-0.6190130172999999
dilithium(1+) ion sulfate,[Li+].[Li+].[O-][S]([O-])(=O)=O,0.3921242805
dimethyl[2-[(2-methyl-1-oxoallyl)oxy]ethyl](3-sulphopropyl)ammonium hydroxide,CC(=C)C(=O)OCC[N+](C)(C)CCC[S]([O-])(=O)=O,0.9627399696
"disodium 2-{4-[(2E)-2-cyano-3-{4-[methyl(2-sulfonatoethyl)amino]phenyl}prop-2-enamido]phenyl}-6-methyl-1,3-benzothiazole-7-sulfonate",[Na+].[Na+].CN(CC[S]([O-])(=O)=O)c1ccc(cc1)/C=C(C#N)/C(=O)Nc2ccc(cc2)c3sc4c(ccc(C)c4[S]([O-])(=O)=O)n3,-0.415949942
2-phenoxyethan-1-ol,OCCOc1ccccc1,-0.742461176
potassium hydrogen oxalate,[K+].OC(=O)C([O-])=O,-0.7096904801
"7-acetamido-4-hydroxy-3-[[4-[[2-(sulphooxy)ethyl]sulphonyl]phenyl]azo]naphthalene-2-sulphonic acid, sodium salt",[Na+].[Na+].CC(=O)Nc1ccc2C(=O)C(=N/Nc3ccc(cc3)[S](=O)(=O)CCO[S]([O-])(=O)=O)\C(=Cc2c1)[S]([O-])(=O)=O,-0.3963934895
N'-acetylacetohydrazide,CC(=O)NNC(C)=O,0.3286681761
ethyl 2-cyclohexylpropanoate,CCOC(=O)C(C)C1CCCCC1,-3.3274567494
calcium bis((2S)-5-oxopyrrolidine-2-carboxylate),[Ca++].[O-]C(=O)C1CCC(=O)N1,0.1651478476
disodium oxybis[methylbenzenesulphonate],[Na+].[Na+].Cc1cc(Oc2cc(C)cc(c2)[S]([O-])(=O)=O)cc(c1)[S]([O-])(=O)=O,-0.2207961953999999
2-(dimethylamino)ethyl acrylate,CN(C)CCOC(=O)C=C,0.2243106848
"4-methyl-1,3-dioxolan-2-one",CC1COC(=O)O1,0.371232292
(4-methoxyphenyl)methanol,COc1ccc(CO)cc1,-0.7447271456
aniline; formaldehyde,Nc1ccccc1.C=O,-2.0040922179
1-ethynylcyclohexanol,OC1(CCCCC1)C#C,-0.7048960629000001
"1,3-dioxo-1,3-dihydro-2-benzofuran-5-carboxylic acid",OC(=O)c1ccc2C(=O)OC(=O)c2c1,-0.8961963145999999
caesium(1+) ion nitrate,[Cs],0.255764198
"3-hydroxy-2,2-dimethylpropyl 3-hydroxy-2,2-dimethylpropanoate",CC(C)(CO)COC(=O)C(C)(C)CO,0.0682018165
"copper(2+) ion tetrasodium 8-[(4-amino-6-chloro-1,3,5-triazin-2-yl)amino]-2-[(E)-2-(1-oxido-4,8-disulfonatonaphthalen-2-yl)diazen-1-yl]-3,6-disulfonatonaphthalen-1-olate",[Na+].[Na+].[Na+].[Na+].[Cu++].Nc1nc(Cl)nc(Nc2cc(cc3cc(c(N=Nc4cc(c5cccc(c5c4[O-])[S]([O-])(=O)=O)[S]([O-])(=O)=O)c([O-])c23)[S]([O-])(=O)=O)[S]([O-])(=O)=O)n1,-0.5907814418999999
"1,3-diaminourea",NNC(=O)NN,0.4145585536
pentan-2-ol,CCCC(C)O,-0.2541408245
"sodium 1-(3,4-dihydro-6-methyl-2,4-dioxo-2H-pyran-3-ylidene)ethanolate",[Na+].CC(=O)[C-]1C(=O)OC(=CC1=O)C,0.0845613317
3-methylphenol,Cc1cccc(O)c1,-0.662918503
methanethiol,CS,-0.3148794359
2-propyloxirane,CCCC1CO1,-0.57344678
potassium difluorodihydroxyboranuide,[K+].O[B-](O)(F)F,-0.724347118
sodium 5-[[4-acetamido-2-(trifluoromethyl)phenyl]azo]-6-amino-4-hydroxynaphthalene-2-sulphonate,[Na+].CC(=O)Nc1ccc(NNC2=C3C(=O)C=C(C=C3C=CC2=N)[S]([O-])(=O)=O)c(c1)C(F)(F)F,-1.3288181975
benzoate; diaminomethylideneazanium,N[C+](N)N.[O-]C(=O)c1ccccc1,0.0050162556
"disodium bis[(oxoboranyl)oxy]bicyclo[5.5.1]hexaboroxane-3,5-bis(olate)",O.O.O.O.[Na+].[Na+].[O-]B([O-])[O-].[O-]B([O-])[O-].[O-]B([O-])[O-].[O-]B([O-])[O-].[O-]B([O-])[O-].[O-]B([O-])[O-].[O-]B([O-])[O-].[O-]B([O-])[O-],-0.4201864202
sodium 2-phenoxyacetate,[Na+].[O-]C(=O)COc1ccccc1,0.1085957051
"sodium 4-{[4-(diethylamino)phenyl][4-(diethyliminio)cyclohexa-2,5-dien-1-ylidene]methyl}benzene-1,3-disulfonate",[Na+].CCN(CC)c1ccc(cc1)[C+](c2ccc(cc2)N(CC)CC)c3ccc(cc3[S]([O-])(=O)=O)[S]([O-])(=O)=O,-0.4066892685
2-chlorophenol,Oc1ccccc1Cl,-0.7538392019
"4-bromo-1,2-dichlorobenzene",Clc1ccc(Br)cc1Cl,-1.0114935501
butyldimethylamine,CCCC[NH+](C)C,-0.6670324644
tetrasodium 4-hydroxy-7-[({5-hydroxy-7-sulfonato-6-[(E)-2-(6-sulfonatonaphthalen-2-yl)diazen-1-yl]naphthalen-2-yl}carbamoyl)amino]-3-[(E)-2-(6-sulfonatonaphthalen-2-yl)diazen-1-yl]naphthalene-2-sulfonate,[Na+].[Na+].[Na+].[Na+].[O-][S](=O)(=O)c1cccc2cc(NNC3=CC(=O)C4=CC(C=CC4=C3[S]([O-])(=O)=O)=NC(=O)Nc5ccc6C(=O)C(=N/Nc7ccc8cccc(c8c7)[S]([O-])(=O)=O)/C(=Cc6c5)[S]([O-])(=O)=O)ccc12,-0.6872171371
2-[1-(aminomethyl)cyclohexyl]acetic acid hydrochloride,[H+].[Cl-].NCC1(CCCCC1)CC(O)=O,0.0190211463
guanidine hydrochloride,[H+].[Cl-].NC(N)=N,1.3522850438999998
"ethane-1,2-diyl bis(3-oxobutanoate)",CC(=O)CC(=O)OCCOC(=O)CC(C)=O,-0.0337559002999999
sodium 4-aminobenzene-1-sulfonate,[Na+].Nc1ccc(cc1)[S]([O-])(=O)=O,0.0379554154
"1,3,5-trioxane",C1OCOCO1,0.3717171259
manganese(2+) ion hydrogen phosphate,[Mn++].O[P]([O-])([O-])=O,0.1455471695
zinc(2+) ion sulfate,O.[Zn++].[O-][S]([O-])(=O)=O,0.0702954323
disodium oxosilanebis(olate),[Na+].[Na+].[O-][Si]([O-])=O,0.2356352551
"sodium 2-{2-[(2,6-dichlorophenyl)amino]phenyl}acetate",[Na+].[O-]C(=O)Cc1ccccc1Nc2c(Cl)cccc2Cl,-1.1742318477
"disodium 3,3'-[[6-[bis(2-hydroxyethyl)amino]-1,3,5-triazine-2,4-diyl]bis[imino(3-methoxy-4,1-phenylene)azo]]bis[benzenesulphonate]",[Na+].[Na+].COc1cc(ccc1Nc2nc(Nc3ccc(cc3OC)N=Nc4cccc(c4)[S]([O-])(=O)=O)nc(n2)N(CCO)CCO)N=Nc5cccc(c5)[S]([O-])(=O)=O,-1.6008155248
"2-ethyl-2-{[2-ethyl-3-hydroxy-2-(hydroxymethyl)propoxy]methyl}propane-1,3-diol",CCC(CO)(CO)COCC(CC)(CO)CO,-1.076302279
methyl 3-sulfanylpropanoate,COC(=O)CCS,-0.7575876082999999
sodium 4-[(4-methyl-3-nitrobenzoyl)amino]benzenesulfonate,[Na+].Cc1ccc(cc1[N+]([O-])=O)C(=O)Nc2ccc(cc2)[S]([O-])(=O)=O,-1.232035998
(4-methyl-1H-imidazol-5-yl)methanol,Cc1[nH]cnc1CO,0.2683337666
potassium dihydrogenorthophosphate,[K+].O[P](O)([O-])=O,0.1842562687
prop-2-enal,C=CC=O,0.5693792548
cerium(+3) cation; hydrogen sulfate; sulfate; tetrahydrate,O.O.O.O.[Ce+3].O[S]([O-])(=O)=O.[O-][S]([O-])(=O)=O,-0.2918169735
azane; molybdenum; tetracosahydrate,N.N.N.N.N.N.O.O.O.O.O.O.O.O.O.O.O.O.O.O.O.O.O.O.O.O.O.O.O.O.[Mo].[Mo].[Mo].[Mo].[Mo].[Mo].[Mo],-0.7664726234999999
ammonium perchlorate,[NH4+].[O-][Cl](=O)(=O)=O,0.2436628357999999
"Cuprate(6-), [2-[[[[3-[[4-chloro-6-[[4-[[4-chloro-6-[(3-sulfophenyl)amino]-1,3,5-triazin-2-yl]amino]-2,5-disulfophenyl]amino]-1,3,5-triazin-2-yl]amino]-2-hydroxy-5-sulfophenyl]azo]phenylmethyl]azo]-5-sulfobenzoato(8-)]-, pentasodium hydrogen, (SP-4-3)-",[Na+].[Na+].[Na+].[Na+].[Na+].[Cu++].[O-]C(=O)c1cc(ccc1NNC(=N/Nc2cc(cc([N-]c3nc(Cl)nc(n3)N=C4C=C(C(C=C4[S]([O-])(=O)=O)=Nc5nc(Cl)nc(Nc6cccc(c6)[S]([O-])(=O)=O)n5)[S]([O-])(=O)=O)c2[O-])[S]([O-])(=O)=O)\c7ccccc7)[S]([O-])(=O)=O.[H+],-0.8254112341
2-methylprop-2-enamide,CC(=C)C(N)=O,0.3753911904
"hexasodium 2-{[4-(diethylamino)-6-({4-[(E)-2-(4-{[4-(diethylamino)-6-[(2,5-disulfonatophenyl)amino]-1,3,5-triazin-2-yl]amino}-2-sulfonatophenyl)ethenyl]-3-sulfonatophenyl}amino)-1,3,5-triazin-2-yl]amino}benzene-1,4-disulfonate",[Na+].[Na+].[Na+].[Na+].[Na+].[Na+].CCN(CC)c1nc(Nc2ccc(\C=C\c3ccc(Nc4nc(Nc5cc(ccc5[S]([O-])(=O)=O)[S]([O-])(=O)=O)nc(n4)N(CC)CC)cc3[S]([O-])(=O)=O)c(c2)[S]([O-])(=O)=O)nc(Nc6cc(ccc6[S]([O-])(=O)=O)[S]([O-])(=O)=O)n1,-0.8122490226000001
2-(methylamino)-1-phenylpropan-1-ol hydrochloride,[Cl-].CN[C@@H](C)[C@H](O)c1ccccc1.[H+],-0.003669443
sodium 3-nitrobenzene-1-sulfonate,[Na+].[O-][N+](=O)c1cccc(c1)[S]([O-])(=O)=O,-0.0514554578
"2,6,6-trimethylcyclohex-2-ene-1,4-dione",CC1=CC(=O)CC(C)(C)C1=O,-0.8779041501
2-[4-(2-hydroxyethoxy)but-2-ynoxy]ethanol,OCCOCC#CCOCCO,0.7589618218
"2-hydroxy-3,5-dinitrobenzoic acid",OC(=O)c1cc(cc(c1O)[N+]([O-])=O)[N+]([O-])=O,-1.057125752
2-phenylethan-1-ol,OCCc1ccccc1,-0.7859239136
ethenyl acetate,CC(=O)OC=C,-0.6339227122
salicylonitrile,Oc1ccccc1C#N,-0.7749656265
"sodium 1-amino-4-bromo-9,10-dioxo-9,10-dihydroanthracene-2-sulfonate",[Na+].Nc1c(cc(Br)c2C(=O)c3ccccc3C(=O)c12)[S]([O-])(=O)=O,-1.3055373023
trimethylsilane,C[Si](C)C,-0.5634276852000001
"2-benzofuran-1,3-dione; 2-(2-hydroxyethoxy)ethanol",OCCOCCO.O=C1OC(=O)c2ccccc12,-1.4052404634
"disodium (4Z)-3-hydroxy-4-[2-(2-hydroxy-3,5-dinitrophenyl)hydrazin-1-ylidene]cyclohexa-2,5-dien-1-one 4-nitroaniline 3-aminobenzene-1-sulfonate 5-amino-2-(phenylamino)benzene-1-sulfonate iron",[Na+].[Na+].[Fe].Nc1ccc(cc1)[N+]([O-])=O.Nc2cccc(c2)[S]([O-])(=O)=O.Nc3ccc(Nc4ccccc4)c(c3)[S]([O-])(=O)=O.OC\5=CC(=O)C=CC5=N/Nc6cc(cc(c6O)[N+]([O-])=O)[N+]([O-])=O,-2.5268154232
benzoic acid,OC(=O)c1ccccc1,-1.619929844
"6-hydroxy-1,4-dihydropyrimidin-4-one",OC1=CC(=O)NC=N1,-1.5871611222
benzyl formate,O=COCc1ccccc1,-1.6731198028999998
1-ethoxybutane,CCCCOCC,-1.5499606595
"1,1,3,3-tetramethylbutyl hydroperoxide",CCOC(=O)C(=N/Nc1ccc(cc1)[N+]([O-])=O)/C(=O)C2=NN3C(=NC(=O)c4ccccc34)S2,-2.2216330999
1-carbamimidamido-N-(2-methylphenyl)methanimidamide,Cc1ccccc1N=C(N)N=C(N)N,-1.8422414993
2-(5-ethenyl-5-methyloxolan-2-yl)propan-2-ol,CC(C)(O)C1CCC(C)(O1)C=C,-1.7997284582
N-(2-methylphenyl)-3-oxobutanamide,CC(=O)CC(=O)Nc1ccccc1C,-1.8501922609
[1-(carbamoylamino)-2-methylpropyl]urea,CC(C)C(NC(N)=O)NC(N)=O,-1.8096943587
"2-Chloro-1,1-difluoroethane",FC(F)CCl,-0.9229632085
"2,2'-(1,3-phenylene)dipropan-2-ol",CC(C)(O)c1cccc(c1)C(C)(C)O,-1.8635330455
2-ethyl-6-methylaniline,CCc1cccc(C)c1N,-1.7061271762
calcium sulfate,[Ca++].[O-][S]([O-])(=O)=O,-1.715687645
N-(4-methoxyphenyl)-3-oxobutanamide,COc1ccc(NC(=O)CC(C)=O)cc1,-1.9014771833
"2-methyl-4-phenyl-1,3-dioxolane",CC1OCC(O1)c2ccccc2,-1.805450609
3-methyl-5-propylcyclohex-2-en-1-one,CCCC1CC(=CC(=O)C1)C,-1.7725870938
4-cyanophenyl acetate,CC(=O)Oc1ccc(cc1)C#N,-1.7990172934
"(2S)-2-(1,3-dioxoisoindol-2-yl)pentanedioic acid",OC(=O)CC[C@H](N1C(=O)c2ccccc2C1=O)C(O)=O,-1.4463316859
1-Methyl-4-propan-2-ylcyclohexene,CC(C)C1CCC(=CC1)C.CC(C)C2CCC(=CC2)C,-5.495255435900001
"1,1-dichloroethene",ClC(Cl)=C,-1.5885809265000002
(6R)-3-methyl-6-(propan-2-yl)cyclohex-2-en-1-one,CC(C)[C@H]1CCC(=CC1=O)C,-1.7882436903
"(2S,5R)-6-amino-3,3-dimethyl-7-oxo-4-thia-1-azabicyclo[3.2.0]heptane-2-carboxylic acid",CC1(C)S[C@@H]2[C@H](N)C(=O)N2[C@H]1C(O)=O,-1.9440451079
"boron(+3) cation; N,N-dimethyloctan-1-amine; trichloride",[B+3].[Cl-].[Cl-].[Cl-].CCCCCCCCN(C)C,-5.4653701933
2-chlorobenzenethiol,Sc1ccccc1Cl,-1.7800351331
3-aminopyrazine-2-carboxylic acid,Nc1nccnc1C(O)=O,-1.7631595965
[(2-chlorophenyl)methyl]dimethylamine,CN(C)Cc1ccccc1Cl,-1.8493554218
"calcium diethyl bis[[[3,5-bis(1,1-dimethylethyl)-4-hydroxyphenyl]methyl]phosphonate]",[Ca++].CCO[P]([O-])(=O)Cc1cc(c(O)c(c1)C(C)(C)C)C(C)(C)C.CCO[P]([O-])(=O)Cc2cc(c(O)c(c2)C(C)(C)C)C(C)(C)C,-2.4616735699000003
"diallyl oxydiethane-2,1-diyl biscarbonate",C=CCOC(=O)OCCOCCOC(=O)OCC=C,-2.0652647201
oct-7-en-1-ol,OCCCCCCC=C,-1.7442328638
benzenesulfonyl chloride,Cl[S](=O)(=O)c1ccccc1,-1.88532188
"3-[(2-isopropyl-5-methylcyclohexyl)oxy]propane-1,2-diol",CC(C)C1CCC(C)CC1OCC(O)CO,-2.0063585886
3-hydroxy-4-methoxybenzaldehyde,COc1ccc(C=O)cc1O,-1.8262432451
4-methylbenzaldehyde,Cc1ccc(C=O)cc1,-1.7237015325
4-amino-3-nitrophenol,Nc1ccc(O)cc1[N+]([O-])=O,-1.8337646505
2-nitrophenol,Oc1ccccc1[N+]([O-])=O,-1.8029142358
"2,4,6-trimethylcyclohex-3-ene-1-carbaldehyde",CC1CC(=CC(C)C1C=O)C,-1.8440637235
5-pentyloxolan-2-one,CCCCC[C@H]1CCC(=O)O1,-1.8552940397
"1-(2,6-dimethylphenoxy)acetone",CC(=O)COc1c(C)cccc1C,-1.9185447839
"2,5-dimethoxyaniline",COc1ccc(OC)c(N)c1,-1.8588690394
"N-(2,4-dimethylphenyl)-3-oxobutanamide",CC(=O)CC(=O)Nc1ccc(C)cc1C,-1.9900786823
N-(2-methoxy-5-methylphenyl)acetamide,COc1ccc(C)cc1NC(C)=O,-1.931164755
"5-methyl-2-phenyl-2,3-dihydro-1H-pyrazol-3-one",CC1=NN(C(=O)C1)c2ccccc2,-1.9250852844