Name,SMILES,Solubility
"(1S,2S,4S)-1,7,7-trimethylbicyclo[2.2.1]heptan-2-yl prop-2-enoate",CC1(C)[C@H]2CC[C@]1(C)C(C2)OC(=O)C=C,-4.5830924552
"2-quinolin-2-yl-1H-indene-1,3(2H)-dione",O=C1C(c2ccc3ccccc3n2)C(=O)c4ccccc14,-4.7011861265
tert-butoxy 2-ethylhexyl carbonate,CCCCC(CC)COC(=O)OOC(C)(C)C,-4.6599585126
dicyclopentyldimethoxysilane,CO[Si](OC)(C1CCCC1)C2CCCC2,-4.6327996787
"3,3,5-trimethylcyclohexyl 2-methylprop-2-enoate",CC1CC(CC(C)(C)C1)OC(=O)C(C)=C,-4.5985985087
"Butanal, reaction products with aniline",CCCC=O.Nc1ccccc1,-4.5021013295
zinc(2+) ion didodecanoate,[Zn++].CCCCCCCCCCCC([O-])=O.CCCCCCCCCCCC([O-])=O,-4.9505314842
"3-methyl-N-(3-{3-methyl-N-[2-(3-methyl-N-{2-[2-(2-methylheptadecyl)-4,5-dihydro-1H-imidazol-1-yl]ethyl}octadecanamido)ethyl]octadecanamido}propyl)octadecanamide; 3-methyl-N-(3-{[2-(3-methyl-N-{2-[2-(2-methylheptadecyl)-4,5-dihydro-1H-imidazol-1-yl]ethyl}octadecanamido)ethyl]amino}propyl)octadecanamide; 3-methyl-N-(3-{[2-({2-[2-(2-methylheptadecyl)-4,5-dihydro-1H-imidazol-1-yl]ethyl}amino)ethyl]amino}propyl)octadecanamide; 3-methyl-N-[3-({2-[(2-{[2-(3-methyloctadecanamido)ethyl]amino}ethyl)amino]ethyl}amino)propyl]octadecanamide; 3-methyl-N-{2-[(2-{3-methyl-N-[2-(piperazin-1-yl)ethyl]octadecanamido}ethyl)amino]ethyl}octadecanamide; 3-methyl-N-{2-[2-(2-methylheptadecyl)-4,5-dihydro-1H-imidazol-1-yl]ethyl}-N-[2-(piperazin-1-yl)ethyl]octadecanamide; 3-methyl-N-{3-[(2-{3-methyl-N-[2-({2-[(4-methylnonadec-1-en-2-yl)amino]ethyl}amino)ethyl]octadecanamido}ethyl)amino]propyl}octadecanamide",CCCCCCCCCCCCCCCCCC(O)=O.NCCNCCNCCNCCN,-4.9604194489
(3Z)-hex-3-en-1-yl 2-hydroxybenzoate,CC/C=C/CCOC(=O)c1ccccc1O,-4.6439814041
"(2S,5R)-5-methyl-2-(propan-2-yl)cyclohexan-1-one",CC(C)[C@@H]1CC[C@@H](C)CC1=O,-2.4918772305
4-(methoxycarbonyl)-3-nitrobenzoic acid,COC(=O)c1ccc(cc1[N+]([O-])=O)C(O)=O,-2.6570018481
"1,3,5-trimethylbenzene",Cc1cc(C)cc(C)c1,-3.382657059
2-methyl-6-methylideneoct-7-en-2-yl acetate,CC(=O)OC(C)(C)CCCC(=C)C=C,-3.5974164985000003
2-chloro-1-methyl-4-nitrobenzene,Cc1ccc(cc1Cl)[N+]([O-])=O,-3.5442781768
"N,N,N-trimethyloctadecan-1-aminium chloride",[Cl-].CCCCCCCCCCCCCCCCCC[N+](C)(C)C,-3.8514567881
"N,N-dipropylpropan-1-amine",CCCN(CCC)CCC,-2.4722202552000003
ammonia,N,1.4518068893
2-oxo-N-{6-[(2-oxoazepane-1-carbonyl)amino]hexyl}azepane-1-carboxamide,O=C1CCCCCN1C(=O)NCCCCCCNC(=O)N2CCCCCC2=O,-3.9064006561
3-methylbutyl 3-methylbutanoate,CC(C)CCOC(=O)CC(C)C,-3.5540595352999995
2-propylheptan-1-ol,CCCCCC(CO)CCC,-3.5181985232
4-[2-(4-aminophenyl)ethyl]aniline,Nc1ccc(CCc2ccc(N)cc2)cc1,-3.6457005741
methyl nicotinate,COC(=O)c1cccnc1,-0.4595508588
"calcium 2,3-dihydroxybutanedioate",[Ca++].O[C@H]([C@@H](O)C(O)=O)C(O)=O,-2.6024346943
4-tert-butylbenzoic acid,CC(C)(C)c1ccc(cc1)C(O)=O,-3.5779623367
chlorocopper,[Cl-].[Cu+],-3.3235329498
molybdenum nickel tetraoxide,[Ni++].[O-][Mo++]([O-])([O-])[O-],-1.6720680623
8-aminonaphthalene-2-sulfonic acid,Nc1cccc2ccc(cc12)[S](O)(=O)=O,-1.6822793230000002
"1,1,1,2,2-pentafluoroethane",FC(F)C(F)(F)F,-1.4164957907
"2,3-dimethylphenol",Cc1cccc(O)c1C,-1.4241960776
5-chloro-7-iodoquinolin-8-ol,Oc1c(I)cc(Cl)c2cccnc12,-1.8222562261
tert-butyl 2-ethylhexaneperoxoate,CCCCC(CC)C(=O)OOC(C)(C)C,-3.6695176909
"2,6,6-trimethylbicyclo[3.1.1]heptane-3-carbaldehyde",CC1C(CC2CC1C2(C)C)C=O,-3.5580403929
2-methyl-4-phenylbutan-2-ol,CC(C)(O)CCc1ccccc1,-1.5556396769999998
4-nitrophenyl acetate,CC(=O)Oc1ccc(cc1)[N+]([O-])=O,-2.5992568252
1-(1-benzofuran-2-yl)ethan-1-one,CC(=O)c1oc2ccccc2c1,-2.5484883965000003
2-amino-6-chloro-4-nitrophenol,[Cl-].[NH3+]c1cc(cc(Cl)c1O)[N+]([O-])=O,-2.6990298363
1-[(2-tert-butylcyclohexyl)oxy]butan-2-ol,CCC(O)COC1CCCCC1C(C)(C)C,-3.698734262
"menthane, monohydroperoxy derivative",CC(C)C1CCC(C)CC1OO,-2.5888216416
"2-methylpropyl 3,5-diamino-4-chlorobenzoate",CC(C)COC(=O)c1cc(N)c(Cl)c(N)c1,-2.738284824
1-benzoylcyclohexan-1-ol,OC1(CCCCC1)C(=O)c2ccccc2,-2.6647801935
benzylhydrazine dihydrochloride,[H+].[H+].[Cl-].[Cl-].NNCc1ccccc1,-1.6467890106
2-ethoxy-3-[[4-[2-(2H-tetrazol-5-yl)phenyl]phenyl]methyl]benzimidazole-4-carboxylic acid,CCOc1nc2cccc(C(O)=O)c2n1Cc3ccc(cc3)c4ccccc4c5n[nH]nn5,-6.4977813968
"2,4,6-trichloro-1,3,5-triazine",Clc1nc(Cl)nc(Cl)n1,-2.6223388564
2-tert-butyl-6-(3-tert-butyl-2-hydroxy-5-methoxyphenyl)-4-methoxyphenol,COc1cc(c(O)c(c1)C(C)(C)C)c2cc(OC)cc(c2O)C(C)(C)C,-6.7763112575
Tazobactam,C[C@]1(Cn2ccnn2)[C@@H](N3[C@@H](CC3=O)[S]1(=O)=O)C(O)=O,-1.8384616763
N-methyl-N-phenylformamide,CN(C=O)c1ccccc1,-1.4947809467
"4-aminobenzene-1,3-disulfonic acid",Nc1ccc(cc1[S](O)(=O)=O)[S](O)(=O)=O,-1.7700930025
2-isopropyl-5-methylcyclohexanol,CC(C)[C@@H]1CC[C@@H](C)C[C@@H]1O,-2.5604043774000003
4-methoxy-3-nitrobenzoic acid,COc1ccc(cc1[N+]([O-])=O)C(O)=O,-2.6613195143
"androsta-1,4-diene-3,17-dione",CC12CCC3C(CCC4=CC(=O)C=CC34C)C1CCC2=O,-2.8204596094
2-phenylethyl pivalate,CC(C)(C)C(=O)OCCc1ccccc1,-3.6752800895
1-cyclohexylethyl acetate,CC(OC(C)=O)C1CCCCC1,-3.5976237668
"4-(2,6,6-trimethylcyclohex-1-en-1-yl)butan-2-one",CC(=O)CCC1=C(C)CCCC1(C)C,-3.6550445763
bromo(ethyl)triphenylphosphorane,[Br-].CC[P+](c1ccccc1)(c2ccccc2)c3ccccc3,-0.9372185286
"benzyl({[(2,6-dimethylphenyl)carbamoyl]methyl})diethylazanium benzoate hydrate",CC[N+](CC)(CC(=O)Nc1c(C)cccc1C)Cc2ccccc2.[O-]C(=O)c3ccccc3,-1.020958606
hexan-1-ol,CCCCCCO,-1.382910122
5-methyl-2-(propan-2-yl)cyclohexan-1-ol,CC(C)[C@@H]1CC[C@@H](C)C[C@H]1O,-2.5706235426
"(2E,6E)-3,7-dimethylnona-2,6-dienenitrile",CC/C(C)=C/CC/C(C)=C/C#N,-3.5896411422
5-hexyl-5-methyldihydrofuran-2(3H)-one,CCCCCCC1(C)CCC(=O)O1,-2.6432618239
2-methoxy-2-methylpropane,COC(C)(C)C,-0.3235268543
sodium 2-amino-5-nitrobenzenesulfonate,[Na+].Nc1ccc(cc1[S]([O-])(=O)=O)[N+]([O-])=O,-1.7677385178999998
Patchoulialcohol,C[C@H]1CCC2(O)C(C)(C)C3CC[C@@]2(C)C1C3,-3.7259038203
"(2-phenylbutan-2-yl)benzene; (2-phenylethyl)benzene; 1,2,4,5-tetraethylbenzene; 1-methyl-2-phenylbenzene; 1-methylnaphthalene; benzene; cyclohexylbenzene; ethenylbenzene; ethylbenzene; phenylbenzene; toluene",CCc1ccccc1.CCc2cc(CC)c(CC)cc2CC.CCC(C)(c3ccccc3)c4ccccc4.Cc5ccccc5.Cc6ccccc6c7ccccc7.Cc8cccc9ccccc89.C=Cc%10ccccc%10.C%11CCC(CC%11)c%12ccccc%12.C(Cc%13ccccc%13)c%14ccccc%14.c%15ccccc%15.c%16ccc(cc%16)c%17ccccc%17,-4.5881768419
dibenzylamine,C(NCc1ccccc1)c2ccccc2,-2.6876302374
"5-methyl-1H-1,2,3-benzotriazole",Cc1cccc2n[nH]nc12,-1.5169635388
3-amino-2-hydroxy-5-nitrobenzene-1-sulfonic acid,Nc1cc(cc(c1O)[S](O)(=O)=O)[N+]([O-])=O,-1.7662055678
"tetrasodium 5-{[(2E)-6-[bis(2-hydroxyethyl)amino]-4-[(4-sulfonatophenyl)amino]-1,2-dihydro-1,3,5-triazin-2-ylidene]amino}-2-[(E)-2-(4-{[(2E)-6-[bis(2-hydroxyethyl)amino]-4-[(4-sulfonatophenyl)amino]-1,2-dihydro-1,3,5-triazin-2-ylidene]amino}-2-sulfonatophenyl)ethenyl]benzene-1-sulfonate",[Na+].[Na+].[Na+].[Na+].OCCN(CCO)c1nc(Nc2ccc(cc2)[S]([O-])(=O)=O)nc(Nc3ccc(\C=C\c4ccc(Nc5nc(Nc6ccc(cc6)[S]([O-])(=O)=O)nc(n5)N(CCO)CCO)c(c4)[S]([O-])(=O)=O)cc3[S]([O-])(=O)=O)n1,-0.4642868095
"1,2-dimethyl benzene-1,2-dicarboxylate",COC(=O)c1ccccc1C(=O)OC,-1.6861579246
"4-{bis[4-(dimethylamino)phenyl]methylidene}-N,N-dimethylcyclohexa-2,5-dien-1-iminium chloride",[Cl-].CN(C)c1ccc(cc1)[C+](c2ccc(cc2)N(C)C)c3ccc(cc3)N(C)C,-2.0085884627
6-heptyloxan-2-one,CCCCCC1CCCC(=O)O1,-1.6290322311
"ethyl 4,4,4-trifluoro-3-oxobutanoate",CCOC(=O)CC(=O)C(F)(F)F,-1.6630244633000002
"oxydiethane-2,1-diyl dinitrate",[O-][N+](=O)OCCOCCO[N+]([O-])=O,-1.6904508209
diphenylsilanediol,O[Si](O)(c1ccccc1)c2ccccc2,-2.7330206215
pentyl pentanoate,CCCCCOC(=O)CCCC,-3.6244813037
"3-methyl-1-({3-[(3-methyl-2,5-dioxo-2,5-dihydro-1H-pyrrol-1-yl)methyl]phenyl}methyl)-2,5-dihydro-1H-pyrrole-2,5-dione",CC1=CC(=O)N(Cc2cccc(CN3C(=O)C=C(C)C3=O)c2)C1=O,-3.9003349932
nickel(2+) ion oxalate,[Ni++].[O-]C(=O)C([O-])=O,-3.556228502
(3Z)-hex-3-en-1-yl benzoate,CC\C=C/CCOC(=O)c1ccccc1,-3.7048974167
"1,4-dimethyl 2-aminobenzene-1,4-dicarboxylate",COC(=O)c1ccc(c(N)c1)C(=O)OC,-3.7185037648
8-ethylundecan-1-amine,CCCC(CC)CCCCCCCN,-3.6976259568
dodecanedioic acid,OC(=O)CCCCCCCCCCC(O)=O,-3.7602414897
"4,4,8,8-tetramethyloctahydro-4a,7-methanonaphtho[1,8a-b]oxirene",CC1(C)CCC2OC23C(C)(C)C4CCC13C4,-4.6529288002
"1-[(9,9-dimethyldecyl)sulfanyl]propan-2-ol",CC(O)CSCCCCCCCCC(C)(C)C,-4.7309406924
dodecanoic acid,CCCCCCCCCCCC(O)=O,-4.6195835711
"[2-butyl-4-chloro-1-({4-[2-(2H-1,2,3,4-tetrazol-5-yl)phenyl]phenyl}methyl)-1H-imidazol-5-yl]methanol",CCCCc1nc(Cl)c(CO)n1Cc2ccc(cc2)c3ccccc3c4n[nH]nn4,-4.9450169862
lutetium oxide,[O--].[O--].[O--].[Lu+3].[Lu+3],-4.9185665359
2-ethylhexyl 2-sulfanylacetate,CCCCC(CC)COC(=O)CS,-4.635481621399999
"(1,1-dimethylpropyl)benzene",CCC(C)(C)c1ccccc1,-4.5007459195
"2-methyl-4-(2,6,6-trimethylcyclohex-2-en-1-yl)butanal",CC(CCC=O)C1C(=CCCC1(C)C)C,-4.6532020914
"2,2-dimethyl-3-methylidenebicyclo[2.2.1]heptane",CC1(C)C2CCC(C2)C1=C,-4.4715404278
2-[2-(4-methylcyclohex-3-en-1-yl)propyl]cyclopentan-1-one,CC(CC1CCCC1=O)C2CCC(=CC2)C,-4.6803670486
methyl decanoate,CCCCCCCCCC(=O)OC,-4.6267485225
dipraseodymium(3+) ion tricarbonate,[Pr+3].[Pr+3].[O-]C([O-])=O.[O-]C([O-])=O.[O-]C([O-])=O,-5.0220270242
"1,1,3,3-tetrabutylurea",CCCCN(CCCC)C(=O)N(CCCC)CCCC,-4.8205954965
Cedryl methyl ether,CO[C@]1(C)CCC23C[C@@H]1C(C)(C)[C@@H]2CC[C@H]3C,-4.7401771795
cyclododecyl methyl ether,COC1CCCCCCCCCCC1,-4.6835903829
"2-ethoxy-2,6,6-trimethyl-9-methylidenebicyclo[3.3.1]nonane",CCOC1(C)CCC2C(=C)C1CCC2(C)C,-4.7342962454
"N,N-diethyl[(diethylcarbamothioyl)disulfanyl]carbothioamide",CCN(CC)C(=S)SSC(=S)N(CC)CC,-4.8603775493
"6-amino-2-(2,4-dimethylphenyl)-1H-benzo[de]isoquinoline-1,3(2H)-dione",Cc1ccc(N2C(=O)c3cccc4c(N)ccc(C2=O)c34)c(C)c1,-4.8916555333
"(4-tert-butyl-2,6-dimethylphenyl)acetonitrile",Cc1cc(cc(C)c1CC#N)C(C)(C)C,-4.7018118295
"3,9-bis[2,4-bis(2-phenylpropan-2-yl)phenoxy]-2,4,8,10-tetraoxa-3,9-diphosphaspiro[5.5]undecane",CC(C)(c1ccccc1)c2ccc(O[P@]3OC[C@]4(CO3)CO[P@](OC4)Oc5ccc(cc5C(C)(C)c6ccccc6)C(C)(C)c7ccccc7)c(c2)C(C)(C)c8ccccc8,-7.2319734263
Naphthalimide,O=C1NC(=O)c2cccc3cccc1c23,-4.6928315029
dibutylstannanone,CCCC[Sn](=O)CCCC,-4.7940381830000005
dibutyltin bis(2-ethylhexanoate),CCCC[Sn++]CCCC.CCCCC(CC)C([O-])=O.CCCCC(CC)C([O-])=O,-5.1134043257
octahydro-2H-1-benzopyran-2-one,O=C1CCC2CCCCC2O1,-0.5865603256
methyl 4-methylbenzoate,COC(=O)c1ccc(C)cc1,-2.5767203524
"2-benzyl-4,4,6-trimethyl-1,3-dioxane",CC1CC(C)(C)OC(Cc2ccccc2)O1,-2.7446854432
"benzene-1,2-diamine",Nc1ccccc1N,-0.4396098786999999
"1,2-benzisothiazol-3(2H)-one 1,1-dioxide",O=C1N[S](=O)(=O)c2ccccc12,-1.6718324141
sodium 4-amino-3-methylbenzene-1-sulfonate,[Na+].Cc1cc(ccc1N)[S]([O-])(=O)=O,-1.7295012251
"3,7-dimethyloctanenitrile",CC(C)CCCC(C)CC#N,-3.5877591379
calcium molybdate,[Ca++].[O-][Mo]([O-])(=O)=O,-3.7036943449
1-[3-(2-oxoazepane-1-carbonyl)benzoyl]azepan-2-one,O=C1CCCCCN1C(=O)c2cccc(c2)C(=O)N3CCCCCC3=O,-3.9583461947
"6,10-dimethylundeca-5,9-dien-2-one",CC(C)=CCC\C(C)=C\CCC(C)=O,-3.6974484249
prop-2-en-1-yl hexanoate,CCCCCC(=O)OCC=C,-2.6105517594
"sodium 2-amino-4,6-dinitrophenolate",[Na+].Nc1cc(cc(c1[O-])[N+]([O-])=O)[N+]([O-])=O,-1.7648130029
4-chloro-1-(4-fluorophenyl)butan-1-one,Fc1ccc(cc1)C(=O)CCCCl,-2.7226339225
tri(propan-2-yl)silyl prop-2-enoate,CC(C)[Si](OC(=O)C=C)(C(C)C)C(C)C,-4.9437379631
diisopropyl succinate,CC(C)OC(=O)CCC(=O)OC(C)C,-1.7293168462
strontium(2+) ion 3-hydroxy-4-[(E)-2-(4-methyl-2-sulfonatophenyl)diazen-1-yl]naphthalene-2-carboxylate,[Sr++].Cc1ccc(N\N=C\2C(=O)C(=Cc3ccccc23)C([O-])=O)c(c1)[S]([O-])(=O)=O,-4.1057301532
"8-[(4-aminophenyl)diazenyl]-7-hydroxy-N,N,N-trimethylnaphthalen-2-aminium chloride",[Cl-].C[N+](C)(C)c1ccc2ccc(O)c(N=Nc3ccc(N)cc3)c2c1,-1.9807853884
trifluoroacetamide,NC(=O)C(F)(F)F,-1.4850227408
4-(2-methylbutan-2-yl)cyclohexan-1-one,CCC(C)(C)C1CCC(=O)CC1,-2.6568927779
4-methanesulfonyl-1-methyl-2-nitrobenzene,Cc1ccc(cc1[N+]([O-])=O)[S](C)(=O)=O,-2.7647010816
methyl non-2-ynoate,CCCCCCC#CC(=O)OC,-3.6518876662
decan-1-ol,CCCCCCCCCCO,-3.6312380365
triphenylphosphine oxide,O=[P](c1ccccc1)(c2ccccc2)c3ccccc3,-2.8774727952
"2-chloro-1,4-dimethoxybenzene",COc1ccc(OC)c(Cl)c1,-2.6724024043
2-(2-naphthyloxy)ethanol,OCCOc1ccc2ccccc2c1,-2.7142946902
butoxybenzene,CCCCOc1ccccc1,-3.6132495633
2-[2-(benzoyloxy)ethoxy]ethyl benzoate,O=C(OCCOCCOC(=O)c1ccccc1)c2ccccc2,-3.937488879
"(Z)-N-9-octadecenylpropane-1,3-diamine",CCCCCCCC\C=C/CCCCCCCCNCCCN,-3.9550420009
"1,2,4-trichlorobenzene",Clc1ccc(Cl)c(Cl)c1,-3.7024520783
"[3-methyl-4-(2,2,2-trifluoroethoxy)pyridin-2-yl]methanol",Cc1c(CO)nccc1OCC(F)(F)F,-1.7920737105000002
methoxymethane,COC,0.8843659201
"(2E)-3-(3,4,5-trimethoxyphenyl)prop-2-enoic acid",COc1cc(\C=C\C(O)=O)cc(OC)c1OC,-2.830470194
barium(2+) ion diphosphinate,[Ba++].[O-]P=O.[O-]P=O,0.1236633717
"1,4-dibromobutane",BrCCCCBr,-2.7902167817000003
"1,2,3,4-tetrahydronaphthalene",C1CCc2ccccc2C1,-3.5673681389
"1,6-dibutyl hexanedioate",CCCCOC(=O)CCCCC(=O)OCCCC,-3.8681538696
"ethyl phenyl(2,4,6-trimethylbenzoyl)phosphinate",CCO[P](=O)(C(=O)c1c(C)cc(C)cc1C)c2ccccc2,-3.9560819473
2-tert-butyl-5-methylphenol,Cc1ccc(c(O)c1)C(C)(C)C,-2.672674663
dimethyl 2-nitroterephthalate,COC(=O)c1ccc(C(=O)OC)c(c1)[N+]([O-])=O,-2.8359048818
Cobaltous acetate,[Co++].CC([O-])=O.CC([O-])=O,0.2936043702
6-(prop-2-enoyloxy)hexyl prop-2-enoate,C=CC(=O)OCCCCCCOC(=O)C=C,-2.8193366955
"N,N-dimethyldecanamide",CCCCCCCCCC(=O)N(C)C,-2.7681111795
4-[(E)-2-phenyldiazen-1-yl]aniline,Nc1ccc(cc1)N=Nc2ccccc2,-3.7597030757
"(2,2,3-trimethylcyclopent-3-en-1-yl)acetonitrile",CC1=CCC(CC#N)C1(C)C,-2.6475372328
2-tert-butyl-4-methylphenol,Cc1ccc(O)c(c1)C(C)(C)C,-2.6917536232
"N,N,N-trimethylanilinium chloride",[Cl-].C[N+](C)(C)c1ccccc1,0.2877472964999999
"1,3,3-trimethyl-2-oxabicyclo[2.2.2]octane 2-(4-methylcyclohex-3-en-1-yl)propan-2-yl acetate",CC(=O)OC(C)(C)C1CCC(=CC1)C.CC23CCC(CC2)C(C)(C)O3,-3.0213590642000003
"tris(prop-2-en-1-yloxy)-1,3,5-triazine",C=CCOc1nc(OCC=C)nc(OCC=C)n1,-2.8742257802
valeric acid,CCCCC(O)=O,-0.490652149
3-methyl-4-phenylbutan-2-ol,CC(O)C(C)Cc1ccccc1,-1.6969729899
"1,3-diethyl 2-butylpropanedioate",CCCCC(C(=O)OCC)C(=O)OCC,-2.8164963969
"2-(2-undecyl-4,5-dihydro-1H-imidazol-1-yl)ethanol",CCCCCCCCCCCC1=NCCN1CCO,-3.8986556211
1-chloro-4-(trifluoromethyl)benzene,FC(F)(F)c1ccc(Cl)cc1,-3.7276952246
4-(4-hydroxyphenyl)phenol,Oc1ccc(cc1)c2ccc(O)cc2,-3.7423730992
"1,4-bis[(E)-prop-1-enoxy]cyclohexane 1,4-di(prop-1-enoxy)cyclohexane",C\C=C\OC1CCC(CC1)O\C=C\C,-3.9037320907
"1,7-dioxacycloheptadecan-8-one",O=C1CCCCCCCCCOCCCCCO1,-3.8838494997
9-Methylnonadecane,CCCCCCCCCCC(C)CCCCCCCC,-6.4511045339
(E)-(carbamoylimino)urea; (Z)-(carbamoylimino)urea,NC(=O)N=NC(N)=O,-3.5462434596
"2,4-di-tert-butylphenol",CC(C)(C)c1ccc(O)c(c1)C(C)(C)C,-3.7960463334
3-(4-tert-butylphenyl)-2-methylpropanal,CC(Cc1ccc(cc1)C(C)(C)C)C=O,-3.7917820609
3-amino-4-methoxy-N-phenylbenzamide,COc1ccc(cc1N)C(=O)Nc2ccccc2,-3.86580004
methanidylidyneoxidanium,[C-]#[O+],-2.9287991689
2-chloro-2-methylbutane,CCC(C)(C)Cl,-2.5105450102
"2,2',2'',2'''-(ethane-1,2-diyldinitrilo)tetraacetonitrile",N#CCN(CCN(CC#N)CC#N)CC#N,-2.8204043469
tert-butyl benzenecarboperoxoate,CC(C)(C)OOC(=O)c1ccccc1,-2.7764329492
"1,1-difluoroethane",CC(F)F,-1.3147228436
"3,7-dimethyloctan-3-ol",CCC(C)(O)CCCC(C)C,-2.6942897822000003
"5-methoxy-1,3-dihydro-2H-benzimidazole-2-thione",COc1ccc2NC(=S)Nc2c1,-2.7506819237
bromo(trifluoro)methane,FC(F)(F)Br,-2.6677709688
"zinc bis(O,O-diisooctyl) bis(dithiophosphate)",[Zn++].CC(C)CCCCCO[P]([S-])(=S)OCCCCCC(C)C.CC(C)CCCCCO[P]([S-])(=S)OCCCCCC(C)C,-4.3707014658
2-({[6-(oxiran-2-ylmethoxy)naphthalen-1-yl]oxy}methyl)oxirane,C1OC1COc2ccc3c(OCC4CO4)cccc3c2,-3.9191737976
"(2E)-3,7-dimethylocta-2,6-dien-1-yl formate",CC(C)=CCC\C(C)=C\COC=O,-3.7461507617
pentalead tetraoxide sulphate,O.O.O.O.[Pb].[Pb].[Pb].[Pb].[Pb].[O-][S]([O-])(=O)=O,-4.5661230993
"(3E)-4-(2,5,6,6-tetramethylcyclohex-2-en-1-yl)but-3-en-2-one",C[C@@H]1CC=C(C)[C@H](\C=C\C(C)=O)C1(C)C,-3.8026769123
cyclohexylmethyl-dimethoxysilane,CO[SiH](CC1CCCCC1)OC,-3.0959725365
5-amino-2-[(E)-2-(4-amino-2-sulfophenyl)ethenyl]benzene-1-sulfonic acid,Nc1ccc(\C=C\c2ccc(N)cc2[S](O)(=O)=O)c(c1)[S](O)(=O)=O,-4.0635303796
"zinc 4-methyl-2-thioxo-2,3-dihydrobenzimidazol-1-ide 7-methyl-2-thioxo-2,3-dihydrobenzimidazol-1-ide",[Zn++].Cc1cccc2[N-]C(=S)Nc12.Cc3cccc4NC(=S)[N-]c34,-4.0879587895
3-[hydroxy(phenyl)phosphoryl]propanoic acid,OC(=O)CC[P](O)(=O)c1ccccc1,-0.8283051545000001
(phenylmethanesulfinylmethyl)benzene,O=[S](Cc1ccccc1)Cc2ccccc2,-2.8588087212
2-[(E)-2-(1-cyano-1-methylethyl)diazen-1-yl]-2-methylpropanenitrile,CC(C)(N=NC(C)(C)C#N)C#N,-2.7132509977
2-methylbutyl acrylate,CCC(C)COC(=O)C=C,-2.6532064055
"2-chloro-1,3-benzothiazole",Clc1sc2ccccc2n1,-2.7325883752
"2-aminoethan-1-ol; 6-cyclohexyl-1-hydroxy-4-methyl-1,2-dihydropyridin-2-one",CC1=CC(=O)N(O)C(=C1)C2CCCCC2.NCCO,-0.9331685906
"4,7-dichloroquinoline",Clc1ccc2c(Cl)ccnc2c1,-2.8026246384
2-aminobenzenesulfonic acid,Nc1ccccc1[S](O)(=O)=O,-1.7471686412
bis(propan-2-yloxy)titaniumbis(ylium) bis((2Z)-4-oxopent-2-en-2-olate),[Ti+4].CC(C)[O-].CC(C)[O-].CC(=O)[CH-]C(C)=O.CC(=O)[CH-]C(C)=O,-2.0700509817
4-acetamidobenzene-1-sulfonyl chloride,CC(=O)Nc1ccc(cc1)[S](Cl)(=O)=O,-2.8772524161
"2,2,6-trimethylcyclohexyl propanoate",CCC(=O)OC1C(C)CCCC1(C)C,-3.8031812605
"1,4-dimethyl benzene-1,4-dicarboxylate",COC(=O)c1ccc(cc1)C(=O)OC,-3.796856222
2-heptylcyclopentan-1-one,CCCCCCCC1CCCC1=O,-3.7694416506
benzyl 2-phenylacetate,O=C(Cc1ccccc1)OCc2ccccc2,-3.863274879700001
"N,N-dimethyl[(dimethylcarbamothioyl)sulfanyl]carbothioamide",CN(C)C(=S)SC(=S)N(C)C,-2.8302990647
"3,7-dimethyloct-6-en-1-ol",C[C@@H](CCO)CCC=C(C)C,-2.7067344575
"4,7-dimethyloct-6-en-3-one",CCC(=O)C(C)CC=C(C)C,-2.7010952437
"2-amino-3,5-dimethylbenzene-1-sulfonic acid",Cc1cc(C)c(N)c(c1)[S](O)(=O)=O,-1.8195435039
thiophene,s1cccc1,-1.4450110492
4-[2-(4-hydroxyphenyl)propan-2-yl]phenol,CC(C)(c1ccc(O)cc1)c2ccc(O)cc2,-2.8799222949
"2,2,2-trichloroacetaldehyde",ClC(Cl)(Cl)C=O,-0.691340871
2-methylbutan-1-ol,CCC(C)CO,-0.4681010618999999
Fusel oil,CC(C)CCO,-0.4681010618999999
"tetrasodium (6Z)-4-acetamido-5-oxo-6-(2-{7-sulfonato-4-[(E)-2-(4-sulfonatophenyl)diazen-1-yl]naphthalen-1-yl}hydrazin-1-ylidene)-5,6-dihydronaphthalene-1,7-disulfonate",[Na+].[Na+].[Na+].[Na+].CC(=O)Nc1ccc(c2C=C(/C(=N/Nc3ccc(N=Nc4ccc(cc4)[S]([O-])(=O)=O)c5ccc(cc35)[S]([O-])(=O)=O)C(=O)c12)[S]([O-])(=O)=O)[S]([O-])(=O)=O,-1.4612448391
"1,3-benzothiazole",s1cnc2ccccc12,-1.6538265258000002
3-nitrobenzoic acid,OC(=O)c1cccc(c1)[N+]([O-])=O,-1.7459071723
dioxomolybdenum,O=[Mo]=O,-3.7396436363
"2,4-dihydro-1H-3,1-benzoxazine-2,4-dione",O=C1Nc2ccccc2C(=O)O1,-2.7354179060000003
"2-hydroxy-1,2-diphenylethan-1-one",OC(c1ccccc1)C(=O)c2ccccc2,-2.8497223519
octan-1-ol,CCCCCCCCO,-2.6375931207
Tellurium dioxide,O=[Te]=O,-3.7156062333
"methyl 2-[(4-amino-3,5-dichloro-6-fluoropyridin-2-yl)oxy]acetate",COC(=O)COc1nc(F)c(Cl)c(N)c1Cl,-3.9512810281
"3,7-dimethylocta-1,6-dien-3-yl acetate",CC(C)=CCCC(C)(OC(C)=O)C=C,-3.8157769203
"2,6-di-tert-butylphenol",CC(C)(C)c1cccc(c1O)C(C)(C)C,-4.7135873776
"7-{[4,5-dihydroxy-6-(hydroxymethyl)-3-[(3,4,5-trihydroxy-6-methyloxan-2-yl)oxy]oxan-2-yl]oxy}-5-hydroxy-2-(3-hydroxy-4-methoxyphenyl)-3,4-dihydro-2H-1-benzopyran-4-one",COc1ccc(cc1O)[C@@H]2CC(=O)c3c(O)cc(O[C@@H]4O[C@H](CO)[C@@H](O)[C@H](O)[C@H]4O[C@@H]5O[C@@H](C)[C@H](O)[C@@H](O)[C@H]5O)cc3O2,-5.1858488331
dicerium(3+) ion tricarbonate,[Ce+3].[Ce+3].[O-]C([O-])=O.[O-]C([O-])=O.[O-]C([O-])=O,-5.0664023631
2-ethylhexyl acetate,CCCCC(CC)COC(C)=O,-4.6451400046
2-methyldecanenitrile,CCCCCCCCC(C)C#N,-4.6324209502
"5-[(4-chloro-2-nitrophenyl)diazenyl]-1-ethyl-6-hydroxy-4-methyl-2-oxo-1,2-dihydropyridine-3-carbonitrile",CCN1C(=O)C(=N/Nc2ccc(Cl)cc2[N+]([O-])=O)/C(=C(C#N)C1=O)C,-4.96733793
6-methylhept-1-ene,CC(C)CCCC=C,-4.458990177
"6-chloro-5-(2-chloroethyl)-2,3-dihydro-1H-indol-2-one",ClCCc1cc2CC(=O)Nc2cc1Cl,-4.7775740697
bis(2-butoxyethyl) adipate,CCCCOCCOC(=O)CCCCC(=O)OCCOCCCC,-4.9587331394
"1,1'-ethane-1,1-diyldibenzene",CC(c1ccccc1)c2ccccc2,-4.6925039386
1-benzyl-2-methylbenzene; 1-benzyl-3-methylbenzene; 1-benzyl-4-methylbenzene,Cc1ccccc1Cc2ccccc2,-4.6925039386
dineodymium(3+) ion tricarbonate,[Nd+3].[Nd+3].[O-]C([O-])=O.[O-]C([O-])=O.[O-]C([O-])=O,-5.1084204387