Name,SMILES,Solubility
2-quinolinecarboxylic acid,OC(=O)c1ccc2ccccc2n1,-1.0911
"quinoline, 2,7-dimethyl-",Cc1ccc2ccc(C)nc2c1,-1.9424
"2-chloro-n,n-diallylacetamide",ClCC(=O)N(CC=C)CC=C,-0.9452
"2,4,5-tb",OC(=O)CCCOc1cc(Cl)c(Cl)cc1Cl,-3.8294
"1,3-butanedione, 1-phenyl-",CC(=O)CC(=O)c1ccccc1,-2.6268
"benzoic acid, anhydride",O=C(OC(=O)c1ccccc1)c2ccccc2,-4.3546
"2,4-d, isopropyl ester",CC(C)OC(=O)COc1ccc(Cl)cc1Cl,-3.848
"benzoic acid, 4-amino-, 2-methylpropyl ester",CC(C)COC(=O)c1ccc(N)cc1,-2.9437
parethoxycaine,CCOc1ccc(cc1)C(=O)OCCN(CC)CC,-2.7145
pralidoxime iodide [usan:inn:jan],[I-].CN1C=CC=C\C1=C/[NH+]=O,-0.7405
"2,4-d, butyl ester",CCCCOC(=O)COc1ccc(Cl)cc1Cl,-3.78
mcpb,Cc1cc(Cl)ccc1OCCCC(O)=O,-3.678
"2,4-deb",Clc1ccc(OCCOC(=O)c2ccccc2)c(Cl)c1,-3.8118
"2-ethyl-1,3-hexandiol",CCCC(O)C(CC)CO,-0.5418
triethylene glycol bis(2-ethylbutyrate),CCC(CC)C(=O)OCCOCCOCCOC(=O)C(CC)CC,-3.2386
dimethyl glyoxime,C\C(NO)=C(/C)N=O,-2.2868
"3,4-xylidine",Cc1ccc(N)cc1C,-1.5036
"3,4-dichlorophenol",Oc1ccc(Cl)c(Cl)c1,-1.2458
ethyl oxalate,CCOC(=O)C(=O)OCC,-0.6085
"2,3-dibromo-1-propanol",OCC(Br)CBr,-0.6222
"1,2,3-trichloropropane",ClCC(Cl)CCl,-1.9255
2-amino-1-butanol,CCC(N)CO,1.0499
"3-chloro-1,2-propanediol",OCC(O)CCl,0.9565
2-butanone oxime,CC\C(C)=N\O,0.0599
2-methyltetrahydrofuran,CC1CCCO1,0.2069
soman,CC(O[P](C)(F)=O)C(C)(C)C,-0.9383
2-(bis(1-methylethyl)amino)ethanol,CC(C)N(CCO)C(C)C,-1.0829
"l-valine, n-acetyl-",CC(C)[C@H](NC(C)=O)C(O)=O,-0.3599
"phenol, 2,2'-thiobis 4,6-dichloro-",Oc1c(Cl)cc(Cl)cc1Sc2cc(Cl)cc(Cl)c2O,-4.9495
"pentanoic acid, 2-methyl-",CCCC(C)C(O)=O,-0.889
ethyl lactate,CCOC(=O)C(C)O,0.9276
isobutyl isobutyrate,CC(C)COC(=O)C(C)C,-2.1590000000000003
2-hydroxymethylfuran,OCc1occc1,1.0083
"1,2-benzenediol, 4-(1,1-dimethylethyl)-",CC(C)(C)c1ccc(O)c(O)c1,-1.9197
alpha-terpineol,CC1=CC[C@@H](CC1)C(C)(C)O,-2.337
"benzenesulfonyl chloride, 4-iodo-",Cl[S](=O)(=O)c1ccc(I)cc1,-4.2686
alpha-methylbenzyl alcohol,CC(O)c1ccccc1,-1.7969
(dichloromethyl)benzene,ClC(Cl)c1ccccc1,-2.809
picolinic acid,OC(=O)c1ccccn1,0.892
populin,OCc1ccccc1O[C@@H]2O[C@H](COC(=O)c3ccccc3)[C@@H](O)[C@H](O)[C@H]2O,-2.8925
methyl gallate,COC(=O)c1cc(O)c(O)c(O)c1,-1.2399
"2,6-dichloro-4-nitroaniline",Nc1c(Cl)cc(cc1Cl)[N+]([O-])=O,-4.4709
"4-oxo-4h-pyran-2,6-dicarboxylic acid",OC(=O)C1=CC(=O)C=C(O1)C(O)=O,-1.1097
carvone,CC(=C)C1CC=C(C)C(=O)C1,-2.0628
p-(sec-butyl)phenol,CCC(C)c1ccc(O)cc1,-2.1945
gamma-terpinene,CC(C)C1=CCC(=CC1)C,-4.1958
terephthalic acid,OC(=O)c1ccc(cc1)C(O)=O,-4.0444
2-(diethylamino)-ethanol,CCN(CC)CCO,0.9311
4-cyanopyridine,N#Cc1ccncc1,-0.4154
3-cyanopyridine,N#Cc1cccnc1,0.1128
tetrahydropyran-2-methanol,OCC1CCCCO1,0.9349
4-ethylmorpholine,CCN1CCOCC1,0.9386
cloprop,CC(Oc1cccc(Cl)c1)C(O)=O,-2.2232
hyoscyamine,CN1[C@@H]2CC[C@H]1CC(C2)OC(=O)[C@H](CO)c3ccccc3,-1.91
4-hydroxydiphenylmethane,Oc1ccc(Cc2ccccc2)cc1,-3.4009
"diphenylurea, sym",O=C(Nc1ccccc1)Nc2ccccc2,-3.1508
"1,3,5-triethylbenzene",CCc1cc(CC)cc(CC)c1,-7.0641
"methanediamine, n,n,n',n'-tetraethyl-",CCN(CC)CN(CC)CC,-0.1995
entprol,CC(O)CN(CCN(CC(C)O)CC(C)O)CC(C)O,0.534
triallylamine,C=CCN(CC=C)CC=C,-1.7395
tri n-butylamine,CCCCN(CCCC)CCCC,-3.1157
(2-bromoethyl)benzene,BrCCc1ccccc1,-3.6757
n-methylbenzylamine,CNCc1ccccc1,0.9166
4-methylacetanilide,CC(=O)Nc1ccc(C)cc1,-2.0946
thiacetazone,CC(=O)Nc1ccc(cc1)/C=N/NC(N)=S,-3.429
p-toluenesulfonic acid,Cc1ccc(cc1)[S](O)(=O)=O,0.5564
"2-propenoic acid, 3-(4-methoxyphenyl)-, 2-ethoxy",CCOCCOC(=O)/C=C/c1ccc(OC)cc1,-2.6995
chlorphenesin,OCC(O)COc1ccc(Cl)cc1,-1.3067
1-phenyldecane,CCCCCCCCCCc1ccccc1,-7.959
"2,5-tetrahydrofurandimethanol",OCC1CCC(CO)O1,0.8789
1-hexyn-3-ol,CCCC(O)C#C,-0.4121
ethyl chloroacetate,CCOC(=O)CCl,-0.8005
methyl acetoacetate,COC(=O)CC(C)=O,0.6341
s-butylacetate,CCC(C)OC(C)=O,-1.2727
"butanoic acid, 1,2-ethanediyl ester",CCCC(=O)OCCOC(=O)CCC,-2.6069
"hexanedioic acid, bis(2-methoxyethyl) ester",COCCOC(=O)CCCCC(=O)OCCOC,-1.2665
ethyl heptanoate,CCCCCCC(=O)OCC,-2.7369
ethyl octanoate,CCCCCCCC(=O)OCC,-3.3907
quinhydrone,Oc1ccc(O)cc1.O=C2C=CC(=O)C=C2,-1.7305
3-heptanone,CCCCC(=O)CC,-1.4242
"2,5-piperazinedione",O=C1CNC(=O)CN1,-0.8312
"1-propanol, 2-(2-hydroxypropoxy)-",CC(O)COC(C)CO,0.8723
3-octanone,CCCCCC(=O)CC,-1.693
"decanedioic acid, dimethyl ester",COC(=O)CCCCCCCCC(=O)OC,-3.2831
"1-propyne, 3-bromo-",BrCC#C,-0.9022
1-butyne,CCC#C,-1.2753
1-propanethiol,CCCS,-1.6021
1-bromo-2-chloroethane,ClCCBr,-1.3177
3-chloropropylene,ClCC=C,-1.3562
allylamine,NCC=C,1.2434
"1,2-diaminoethane",NCCN,1.2211
allyl alcohol,OCC=C,1.236
ethylene glycol,OCCO,1.2071
glyoxal,O=CC=O,1.2363
taurine,NCC[S](O)(=O)=O,-0.1906
isethionic acid,OCC[S](O)(=O)=O,0.8992
"2-methyl-2,4-pentanediol",CC(O)CC(C)(C)O,0.9275
sarin,CC(C)O[P](C)(F)=O,0.8536
tetraethyl pyrophosphate,CCO[P](=O)(OCC)O[P](=O)(OCC)OCC,0.5373
octamethyltrisiloxane,C[Si](C)(C)O[Si](C)(C)O[Si](C)(C)C,-6.8424
trichlorourethan,NC(=O)OCC(Cl)(Cl)Cl,-1.2843
4-methoxy-4-methyl-2-pentanone,COC(C)(C)CC(C)=O,0.3326
1-bromo-3-methylbutane,CC(C)CCBr,-2.886
"1,3-butanediol",CC(O)CCO,1.0452
aldol,CC(O)CC=O,1.055
"acetamide, 2-cyano-",NC(=O)CC#N,0.1893
butyric acid,CCCC(O)=O,-0.1669
n-methyl glycine,CNCC(O)=O,0.5273
2-dimethylaminoethanol,CN(C)CCO,1.0499
"2,4-dimethylpentane",CC(C)CC(C)C,-4.2605
4-methyl-2-pentanol,CC(C)CC(C)O,-0.7945
acetic anhydride,CC(=O)OC(C)=O,0.0702
"2(5h)-furanone, 5-methylene-",C=C1OC(=O)C=C1,-0.9827
diethyl 3-methyl-5-pyrazolyl phosphate,CCO[P](=O)(OCC)Oc1cc(C)[nH]n1,-2.3696
m-chlorotoluene,Cc1cccc(Cl)c1,-3.5228
metaldehyde (tetramer),CC1OC(C)OC(C)OC(C)O1,-2.8997
ethyl isovalerate,CCOC(=O)CC(C)C,-1.8135
"2,4,6-collidine",Cc1cc(C)nc(C)c1,-0.5394
4-methyl-2-pentyl acetate,CC(C)CC(C)OC(C)=O,-2.0451
4-methylpyridine,Cc1ccncc1,1.0309
thiophenol,Sc1ccccc1,-2.1204
3-methylpyridine,Cc1cccnc1,1.0309
n-methylmorpholine,CN1CCOCC1,0.995
"piperazine, 2-methyl-",CC1CNCCN1,0.6378
2-methylpyrazine,Cc1cnccn1,1.0263
dibutyl sebacate,CCCCOC(=O)CCCCCCCCC(=O)OCCCC,-3.8955
"hexanedioic acid, bis(2-ethoxyethyl) ester",CCOCCOC(=O)CCCCC(=O)OCCOCC,-2.065
3-hexyn-2-ol,CCC#CC(C)O,-0.4121
isobutyl vinyl ether,CC(C)COC=C,-1.5236
"1,3-dibromopropane",BrCCCBr,-2.0747
2-pentene,CC\C=C/C,-2.5384
n-butylamine,CCCCN,1.1359
ethylene cyanohydrin,OCCC#N,1.1483
butanethiol,CCCCS,-2.1792
"ethanol, 2-hydrazino-",NNCCO,1.1186
2-methoxyethanol,COCCO,1.1186
sec-butylacetate,CC(C)COC(C)=O,-1.2657
"acetone, semicarbazone",CC(C)=NNC(N)=O,-0.2674
ethyl decanoate,CCCCCCCCCC(=O)OCC,-4.1006
diethyl sebacate,CCOC(=O)CCCCCCCCC(=O)OCC,-3.5091
isoamyl formate,CC(C)CCOC=O,-1.5206
2-methoxyethyl acetate,COCCOC(C)=O,0.9276
"1,4-dichlorobutane",ClCCCCCl,-0.92
"1,4-dichloro-2-butene(trans)",ClC/C=C/CCl,-2.1675
n-pentylamine,CCCCCN,1.0597
1-pentanethiol,CCCCCS,-2.8248
2-chloroethyl vinyl ether,ClCCOC=C,-2.3951
2-ethoxyethanol,CCOCCO,1.0452
piperazine,C1CNCCN1,1.0648
morpholine,C1COCCN1,1.0599
diisobutylamine,CC[C@H](C)[NH2+][C@H](C)CC,-1.769
"acetic acid, 2,2'-oxybis-",OC(=O)COCC(O)=O,0.4927
heptanoic acid,CCCCCCC(O)=O,-1.6646
ethoxyethylacetate,CCOCCOC(C)=O,0.2716
decanedioic acid,OC(=O)CCCCCCCCC(O)=O,-2.3059
"triethylene glycol, dinitrate",[O-][N+](=O)OCCOCCOCCO[N+]([O-])=O,-1.561
diethylenetriamine,NCCNCCN,0.9864
diethylene glycol monomethyl ether,COCCOCCO,0.9203
n-nonane,CCCCCCCCC,-5.7657
diethylene glycol monoethyl ether,CCOCCOCCO,0.8723
bis(2-chloroethoxy)methane,ClCCOCOCCCl,-1.3461
2-butoxyethanol acetate,CCCCOCCOC(C)=O,-1.2504
"1,2-bis(2-chloroethoxy)ethane",ClCCOCCOCCCl,-0.9955
diethylene glycol mono-n-butyl ether,CCCCOCCOCCO,0.7899
methoxy triethylene glycol,COCCOCCOCCO,0.7846
bis (2-ethoxy ethyl)  ether,CCOCCOCCOCC,0.7899
ethoxytriethylene glycol,CCOCCOCCOCCO,0.7490000000000001
"ethanol, 2- 2-(hexyloxy)ethoxy -",CCCCCCOCCOCCO,-1.0490000000000002
eicosane,CCCCCCCCCCCCCCCCCCCC,-8.1724
propoxur,CNC(=O)Oc1ccccc1OC(C)C,-2.0512
dimefox,CN(C)[P](F)(=O)N(C)C,0.8121
chlorendic acid,OC(=O)C1C(C(O)=O)C2(Cl)C(=C(Cl)C1(Cl)C2(Cl)Cl)Cl,-2.0457
2-amino-2-methylpropanediol,CC(N)(CO)CO,0.9782
"2,2-diethyl-1,3-propanediol",CCC(CC)(CO)CO,0.1798
octyldiphenyl phosphate,CCCCCCCCO[P](=O)(Oc1ccccc1)Oc2ccccc2,-6.4131
diphenylmethyl phosphate,CO[P](=O)(Oc1ccccc1)Oc2ccccc2,-2.1209
tri-2-chloroethyl phosphate,ClCCO[P](=O)(OCCCl)OCCCl,-1.6105
ethoate methyl,CCNC(=O)CS[P](=S)(OC)OC,-1.4567
aldicarb,CNC(=O)O\N=C\C(C)(C)SC,-1.4991
hydroxyacetone,CC(=O)CO,1.1303
isopropenyl methyl ether,COC(C)=C,1.142
tetrafluoroethylene,FC(F)=C(F)F,-2.8001
"1-(hydroxymethyl)-5,5-dimethylhydantoin",CC1(C)N(CO)C(=O)NC1=O,0.8009
tetradifon,Clc1ccc(cc1)[S](=O)(=O)c2cc(Cl)c(Cl)cc2Cl,-6.6594
1-amino-4-hydroxyanthraquinone,Nc1ccc(O)c2C(=O)c3ccccc3C(=O)c12,-3.824
"1,5-anthraquinonedisulfonic acid",O[S](=O)(=O)c1cccc2C(=O)c3c(cccc3[S](O)(=O)=O)C(=O)c12,0.2572
2-aminoanthraquinone,Nc1ccc2C(=O)c3ccccc3C(=O)c2c1,-6.1366
bis(methoxyethyl)phthalate,COCCOC(=O)c1ccccc1C(=O)OCCOC,-1.5213
dioctyl phthalate,CCCCCCCCOC(=O)c1ccccc1C(=O)OCCCCCCCC,-7.2493
hydrastine,COc1ccc2C(OC(=O)c2c1OC)C3N(C)CCc4cc5OCOc5cc34,-4.1065
"1-naphthalenamine, n-ethyl-",CCNc1cccc2ccccc12,-3.1922
"1,3-dichloro-5,5-dimethylhydantoin",CC1(C)N(Cl)C(=O)N(Cl)C1=O,-2.5955
4-chloro-1-nitro-2(trifluoromethyl)benzene,[O-][N+](=O)c1ccc(Cl)cc1C(F)(F)F,-3.3533
pyridaphenthion,CCO[P](=S)(OCC)OC1=NN(C(=O)C=C1)c2ccccc2,-3.5319
"p-(2,4-dinitroaniline)phenol",Oc1ccc(Nc2ccc(cc2[N+]([O-])=O)[N+]([O-])=O)cc1,-5.444
"2-naphthalenesulfonic acid, 4-hydroxy-6-(phenyla",Oc1cc(cc2ccc(Nc3ccccc3)cc12)[S](O)(=O)=O,-1.9763
isolan,CC(C)n1nc(C)cc1OC(=O)N(C)C,0.6752
bis (2-hydroxy-3tert-butyl-5-methylphenyl) metha,Cc1cc(Cc2cc(C)cc(c2O)C(C)(C)C)c(O)c(c1)C(C)(C)C,-7.2311
dimorpholamine,CCCCN(CCN(CCCC)C(=O)N1CCOCC1)C(=O)N2CCOCC2,0.0985
"benzenemethanol, 4-chloro-.alpha.-phenyl-",OC(c1ccccc1)c2ccc(Cl)cc2,-3.4886
"benzoic acid, 2-(methylamino)-",CNc1ccccc1C(O)=O,-2.8784
bianisidine,Cc1cc(ccc1N)c2ccc(N)c(C)c2,-2.213
"benzaldehyde, 3,4-dimethoxy-",COc1ccc(C=O)cc1OC,-1.4199
"benzaldehyde, 4-ethoxy-3-methoxy-",CCOc1ccc(C=O)cc1OC,-2.1913
5-chloro-2-hydroxydiphenylmethane,Oc1ccc(Cl)cc1Cc2ccccc2,-3.1666
1h-purine,[nH]1cnc2ncncc12,0.6194
"2,2'-dithiobisbenzothiazole",S(Sc1sc2ccccc2n1)c3sc4ccccc4n3,-4.5218
pyrethrin i,CC(C)=C[C@@H]1[C@@H](C(=O)O[C@H]2CC(=O)C(=C2C)C\C=C/C=C)C1(C)C,-6.2155
pyrethrin ii,COC(=O)C(/C)=C/[C@@H]1[C@@H](C(=O)O[C@H]2CC(=O)C(=C2C)C\C=C/C=C)C1(C)C,-4.6168
propyl gallate,CCCOC(=O)c1cc(O)c(O)c(O)c1,-1.7827
"1,3,5,-trinitrohexahydro-1,3,5-triazine",[O-][N+](=O)N1CN(CN(C1)[N+]([O-])=O)[N+]([O-])=O,-3.5706
dimetan,CN(C)C(=O)OC1=CC(=O)CC(C)(C)C1,-0.8477
hydrazobenzene,N(Nc1ccccc1)c2ccccc2,-2.9210000000000003
2-anilinoethanol,OCCNc1ccccc1,-0.4745
succinyl peroxide,OC(=O)CCC(=O)OOC(=O)CCC(O)=O,-0.8471
ethyl nonanoate,CCCCCCCCC(=O)OCC,-3.8007
"3-methylene-7-methyl-1,6-octadiene  (myrcene)",CC(C)=CCCC(=C)C=C,-4.3861
4-hydroxy-4-methyl-2-pentanone,CC(=O)CC(C)(C)O,0.9349
dioctyl adipate,CCCCCCCCOC(=O)CCCCC(=O)OCCCCCCCC,-5.6768
1-[(2-aminoethyl)amino]-2-propanol,CC(O)CNCCN,0.9275
isoamyl acetate,CC(C)CCOC(C)=O,-1.8135
"acetic acid, 2,2'-thiobis-",OC(=O)CSCC(O)=O,0.4255
octanal,CCCCCCCC=O,-2.3598
diethylene glycol monobutyl ether acetate,CCCCOCCOCCOC(C)=O,-0.8188
n-decane,CCCCCCCCCC,-6.4372
n-dodecylamine,CCCCCCCCCCCCN,-3.3759
methane arsonate,C[As](O)(O)=O,0.2622
tetrakis(hydroxymethyl)phosphonium chloride,[Cl-].OC[P+](CO)(CO)CO,0.322
2-amino-2-methyl-1-propanol,CC(C)(N)CO,1.0499
"1,2-dibromotetrafluoroethane",FC(F)(Br)C(F)(F)Br,-4.9376
camphoric acid,CC1(C)[C@H](CC[C@@]1(C)C([O-])=O)C([O-])=O,-1.4207
sucrose octaacetate,CC(=O)OC[C@H]1O[C@H](O[C@]2(COC(C)=O)O[C@H](COC(C)=O)[C@@H](OC(C)=O)[C@@H]2OC(C)=O)[C@H](OC(C)=O)[C@@H](OC(C)=O)[C@@H]1OC(C)=O,-2.8726
"cyclohexanol, 1-ethynyl-, carbamate",NC(=O)OC1(CCCCC1)C#C,-1.8253
dipentaerythritol,OCC(CO)(CO)COCC(CO)(CO)CO,-1.9582
"tris(2,3-dibromopropyl) phosphate",BrCC(Br)CO[P](=O)(OCC(Br)CBr)OCC(Br)CBr,-4.9405
demeton-s,CCO[P](=O)(OCC)SCCSCC,-2.1112
"5,5-dimethyl-1,3-cyclohexanedione",CC1(C)CC(=O)CC(=O)C1,-1.5276
oxanamide,CCCC1OC1(CC)C(N)=O,-1.1745
hydroxyurea,NC(=O)NO,1.1189
pyruvic acid,CC(=O)C(O)=O,1.0552
trimethadione,CN1C(=O)OC(C)(C)C1=O,-0.4568
"benzamide, n- (4-aminophenyl)sulfonyl -",Nc1ccc(cc1)[S](=O)(=O)NC(=O)c2ccccc2,-2.9501
silver lactate,[Ag+].CC([O-])C(O)=O,-0.4702
"2,5-pyrrolidinedione, 1-bromo-",BrN1C(=O)CCC1=O,-1.0831
"1-chloro-2,5-pyrrolidinedione",ClN1C(=O)CCC1=O,-0.9702
ursodeoxycholic acid,C[C@H](CCC(O)=O)[C@H]1CC[C@H]2[C@@H]3[C@@H](O)C[C@@H]4C[C@H](O)CC[C@]4(C)[C@H]3CC[C@]12C,-4.2929
noscapine,COc1ccc2[C@H](OC(=O)c2c1OC)[C@@H]3N(C)CCc4cc5OCOc5c(OC)c34,-3.1393
1-hydroxyanthraquinone,Oc1cccc2C(=O)c3ccccc3C(=O)c12,-4.4213
"2,4,6-trinitrobenzoic acid",OC(=O)c1c(cc(cc1[N+]([O-])=O)[N+]([O-])=O)[N+]([O-])=O,-1.0977
"8-quinolinol,5-chloro-",Oc1ccc(Cl)c2cccnc12,-3.9756
"2-cyclohexyl-4,6-dinitrophenol",Oc1c(cc(cc1[N+]([O-])=O)[N+]([O-])=O)C2CCCCC2,-4.2492
2-phenylcinchoninic acid,OC(=O)c1cc(nc2ccccc12)c3ccccc3,-3.1926
npa (naptalam),OC(=O)c1ccccc1C(=O)Nc2cccc3ccccc23,-3.1633
"naphthalene-1,3-diol",Oc1cc(O)c2ccccc2c1,-1.9493
captan,ClC(Cl)(Cl)SN1C(=O)C2CC=CCC2C1=O,-4.7704
folpet,ClC(Cl)(Cl)SN1C(=O)c2ccccc2C1=O,-5.569
3-indolebutyric acid,OC(=O)CCCc1c[nH]c2ccccc12,-2.9101
"phenol, 2,4-dichloro-3,5-dimethyl-",Cc1cc(O)c(Cl)c(C)c1Cl,-2.9801
"3,5-diiodosalicylic acid",OC(=O)c1cc(I)cc(I)c1O,-3.307
"benzoic acid, 2-(acetyloxy)-, phenyl ester",CC(=O)Oc1ccccc1C(=O)Oc2ccccc2,-4.1077
4-amino-4'-chlorodiphenyl,Nc1ccc(cc1)c2ccc(Cl)cc2,-4.6383
"1,3-diphenyl-1-triazene",N(N=Nc1ccccc1)c2ccccc2,-2.596
"benzenamine, 2-ethoxy-5-nitro-",CCOc1ccc(cc1N)[N+]([O-])=O,-3.2113
"2,4,5-trimethylaniline",Cc1cc(C)c(N)cc1C,-1.9549
glutamic acid hydrochloride,[H+].[Cl-].NC(CCC(O)=O)C(O)=O,0.3159
butyl lactate,CCCCOC(=O)C(C)O,-0.5629
"benzenesulfonic acid, 3-hydrazino-",NNc1cccc(c1)[S](O)(=O)=O,-0.8275
"benzenesulfonamide, 4-(aminomethyl)-",NCc1ccc(cc1)[S](N)(=O)=O,0.321
salicin,OC[C@H]1O[C@@H](Oc2ccccc2CO)[C@H](O)[C@@H](O)[C@@H]1O,-0.8547
nitrilotriacetic acid,OC(=O)CN(CC(O)=O)CC(O)=O,-0.5101
"3,4-dihydroxybenzaldehyde",Oc1ccc(C=O)cc1O,-1.3402
"2-thiophenepropanoic acid, .alpha.-amino-",NC(Cc1sccc1)C(O)=O,-0.8356
"ethanol, 2,2'-(ethylimino)bis-",CC[NH+](CCO)CCO,0.8755
furaltadone,[O-][N+](=O)c1oc(cc1)/C=N/N2CC(CN3CCOCC3)OC2=O,-2.6359
nithiazide,CCNC(=O)Nc1sc(cn1)[N+]([O-])=O,-2.8578
"1,2-ethanediamine, n,n'-bis(phenylmethyl)-",C(CNCc1ccccc1)NCc2ccccc2,-1.7865
fenaminosulf,[Na+].CN(C)c1ccc(cc1)N=N[S]([O-])(=O)=O,-1.0991
"benzene, 1-methoxy-4-(2-propenyl)-",COc1ccc(CC=C)cc1,-2.9209
cyclopentylproprionic acid,OC(=O)CCC1CCCC1,-1.7691
"butanedioic acid, dibutyl ester",CCCCOC(=O)CCC(=O)OCCCC,-3.0006
diethyl maleate,CCOC(=O)\C=C/C(=O)OCC,-1.0899
diethylhexanedioate,CCOC(=O)CCCCC(=O)OCC,-1.6795
decamethyltetrasiloxane,C[Si](C)(C)O[Si](C)(C)O[Si](C)(C)O[Si](C)(C)C,-7.6637
dicrotophos,CO[P](=O)(OC)OC(/C)=C/C(=O)N(C)C,0.6249
3-iodopropionic acid,OC(=O)CCI,-0.43
malonic acid,OC(=O)CC(O)=O,0.8652
"4-thiazolidinone, 2-thioxo-",O=C1CSC(=S)N1,-1.7723
2-thiouracil,O=C1NC(=S)NC=C1,-2.2573
2-hydroxypyridine,O=C1NC=CC=C1,1.0218
"acetamide, n-(2-hydroxyethyl)-",CC(=O)NCCO,0.9867
"1,2-hydrazinecarbothioamide",NC(=S)NNC(N)=S,-1.7965
nabam,[Na+].[Na+].[S-]C(=S)NCCNC([S-])=S,-0.1078
piperazine hydrochloride,[H+].[H+].[Cl-].[Cl-].C1CNCCN1,0.4112
n-hexyl acetate,CCCCCCOC(C)=O,-2.451
"1-hexanamine, n-hexyl-",CCCCCCNCCCCCC,-3.1574
triethylene glycol butyl ether,CCCCOCCOCCOCCO,0.6855
kepone,ClC1(Cl)C2(Cl)C3(Cl)C4(Cl)C(=O)C5(Cl)C3(Cl)C1(Cl)C5(Cl)C24Cl,-5.2594
butabarbital sodium,[Na+].CCC(C)C1(CC)C(=O)NC(=O)[N-]C1=O,0.1528
"1,3-dioxolane-4,4-diacetic acid, 5-oxo-",OC(=O)CC1(CC(O)=O)OCOC1=O,-0.611
dsma,[Na+].[Na+].C[As]([O-])([O-])=O,0.3711
fluoroacetic acid,OC(=O)CF,1.1077
dl-allothreonine,CC(O)C(N)C(O)=O,0.067
d-tartaric acid,O[C@@H]([C@H](O)C(O)=O)C(O)=O,0.8236
"benzamide, 2-methyl-3,5-dinitro-",Cc1c(cc(cc1[N+]([O-])=O)[N+]([O-])=O)C(N)=O,-2.3525
flumethazide,N[S](=O)(=O)c1cc2c(NC=N[S]2(=O)=O)cc1C(F)(F)F,-0.8186
thiabendazole,[nH]1c2ccccc2nc1c3cscn3,-3.6048
"2,4-des",O[S](=O)(=O)OCCOc1ccc(Cl)cc1Cl,-0.0601
"3,4,5-trihydroxybenzoic acid",OC(=O)c1cc(O)c(O)c(O)c1,-1.1552
dulcin,CCOc1ccc(NC(N)=O)cc1,-2.173
sodium succinate,[Na+].[Na+].[O-]C(=O)CCC([O-])=O,0.0914
potassium cyanide,[K+].[C-]#N,1.0436
octamethylpyrophosphoramide,CN(C)[P](=O)(O[P](=O)(N(C)C)N(C)C)N(C)C,0.5433
vicine,NC1=NC(=O)C(=C(N)N1)O[C@@H]2O[C@H](CO)[C@@H](O)[C@H](O)[C@H]2O,-1.4832
"1,3-bis(2-chloroet)-1-nitrosourea",ClCCNC(=O)N(CCCl)N=O,-1.7285
"1,6-dioxaspiro[4,4]nonane",C1COC2(C1)CCCO2,-0.1078
"indeno(1,2,3-cd)pyrene",c1ccc2c(c1)c3ccc4ccc5cccc6cc2c3c4c56,-9.1627
"7h-dibenzo(c,g)carbazole",[nH]1c2ccc3ccccc3c2c4c1ccc5ccccc45,-6.6277
benzo(c)phenanthrene,c1ccc2c(c1)ccc3ccc4ccccc4c23,-7.8207
"benz(a,j)aceanthrylene",c1ccc2c(c1)ccc3c2cc4cccc5c6ccccc6c3c45,-8.4806
"4,5-methylenephenanthrene",C1c2cccc3ccc4cccc1c4c23,-5.2379
benzo(j)fluoranthene,c1ccc2c(c1)ccc3c4cccc5cccc(c45)c23,-8.004
benzo(b)fluoranthene,c1ccc2c(c1)cc3c4ccccc4c5cccc2c35,-8.2259
benzo(k)fluoranthene,c1ccc2cc3c4cccc5cccc(c3cc2c1)c45,-8.4989
"14h-dibenzo[a,j]phenothiazine",N1c2c(Sc3ccc4ccccc4c13)ccc5ccccc25,-7.9081
"7h-dibenzo[c,h]phenothiazine",N1c2ccc3ccccc3c2Sc4c1ccc5ccccc45,-6.8786
12h-benzo[c]phenothiazine,N1c2ccccc2Sc3ccc4ccccc4c13,-5.8957
7h-benzo[c]phenothiazine,N1c2ccccc2Sc3c1ccc4ccccc34,-6.5727
"dibenz(a,h)acridine",c1ccc2c(c1)ccc3nc4c(ccc5ccccc45)cc23,-6.2447
phenanthridine,c1ccc2c(c1)cnc3ccccc23,-2.7763
"1h-1,2,3-triazolo[4,5-d]pyrimidine",[nH]1nc2cncnc2n1,-0.2319
"1,4-diazabicyclo(2,2,2)octane  (dabco)",C1CN2CCN1CC2,0.6033
iso-oxazole,o1cccn1,0.3827
pyridazine,c1ccnnc1,1.0964
pyrimidine,c1cncnc1,1.0964
cycloheptane,C1CCCCCC1,-3.5149
thionazin,CCO[P](=S)(OCC)Oc1cnccn1,-2.338
phosphamidon,CCN(CC)C(=O)/C(Cl)=C(/C)O[P](=O)(OC)OC,0.5233
demeton-o,CCO[P](=S)(OCC)OCCSCC,-3.634
"1,2:3,4-diepoxybutane dl",C1OC1C2CO2,1.065
"l-tyrosine, 3,5-dibromo-",N[C@@H](Cc1cc(Br)c(O)c(Br)c1)C(O)=O,-1.9281
oxydemeton methyl,CC[S](=O)CCS[P](=O)(OC)OC,0.6086
hydrazine,NN,1.4942
aconitine,CCN1C[C@]2(COC)[C@H](O)C[C@H](OC)[C@@]34[C@@H]5C[C@]6(O)[C@@H](OC)[C@H](O)[C@](OC(C)=O)([C@@H]([C@H](OC)[C@H]23)C14)[C@H]5[C@H]6OC(=O)c7ccccc7,-3.3187
meparfynol carbamate,CCC(C)(OC(N)=O)C#C,-0.9456
potassium sodium tartrate,[Na+].[K+].O[C@H]([C@@H](O)C([O-])=O)C([O-])=O,0.3984
"1,1,1-trifluoro-2,2-dichloroethane",FC(F)(F)C(Cl)Cl,-1.8623
2-chlorovinyl diethyl phosphate,CCO[P](=O)(OCC)O\C=C\Cl,-1.3316
bromacil,CCC(C)N1C(=O)NC(=C(Br)C1=O)C,-2.5057
isocil,CC(C)N1C(=O)NC(=C(Br)C1=O)C,-2.0604
mexacarbate,CNC(=O)Oc1cc(C)c(N(C)C)c(C)c1,-3.3469
isoleucine,CCC(C)C(N)C(O)=O,-0.5033
5-chlorosalicylic acid,OC(=O)c1cc(Cl)ccc1O,-1.237
1-fluoronaphthalene,Fc1cccc2ccccc12,-3.4527
"acetamide, n-(4-fluoro-2-methylphenyl)-",CC(=O)Nc1ccc(F)cc1C,-1.3593
"acetamide, n-(2-fluoro-4-methylphenyl)-",CC(=O)Nc1ccc(C)cc1F,-1.7403
"1,2,4,5-tetrafluorobenzene",Fc1cc(F)c(F)cc1F,-2.3757
a-aminocaproic acid,CCCC[C@H](N)C(O)=O,-1.0387
chlorogenic acid,O[C@@H]1C[C@](O)(C[C@@H](OC(=O)\C=C\c2ccc(O)c(O)c2)[C@@H]1O)C(O)=O,-0.9473
leucine,CC(C)CC(N)C(O)=O,-1.0456
cyclohexyl methylphosphonofluoridate,C[P](F)(=O)OC1CCCCC1,-1.6875
o-fluorobenzyl chloride,Fc1ccccc1CCl,-2.541
1-chloro-2-fluorobenzene,Fc1ccccc1Cl,-2.4157
"benzene, 1-fluoro-4-iodo-",Fc1ccc(I)cc1,-3.1257
fluoroethane,CCF,-1.3477
"l-histidine, 3-methyl-",Cn1cncc1C[C@H](N)C(O)=O,0.0727
benzenediazonium hexafluophosphate (1-),F[P-](F)(F)(F)(F)F.N#[N+]c1ccccc1,-1.4438
2-fluoroethanol,OCCF,1.1934
isopestox,CC(C)N[P](F)(=O)NC(C)C,-0.3574
"1,1,1-trifluoro-2-propanol",CC(O)C(F)(F)F,0.3094
"1,1-dichloro-1,2,2,2-tetrafluoroethane",FC(F)(F)C(F)(Cl)Cl,-3.0961
"acetic acid, difluoro-",OC(=O)C(F)F,1.0176
andrenosterone,C[C@]12CC(=O)[C@H]3[C@@H](CCC4=CC(=O)CC[C@]34C)[C@@H]1CCC2=O,-3.4843
4-fluoro-2-propyl-phenol,CCCc1cc(F)ccc1O,-1.887
nidroxyzone,NC(=O)N(CCO)/N=C/c1oc(cc1)[N+]([O-])=O,-2.6852
"benzoic acid, 2-(trifluoromethyl)-",OC(=O)c1ccccc1C(F)(F)F,-1.5978
ethisterone,C[C@]12CCC(=O)C=C1CC[C@@H]3[C@@H]2CC[C@@]4(C)[C@H]3CC[C@@]4(O)C#C,-5.6576
lithocholic acid,C[C@H](CCC(O)=O)[C@H]1CC[C@H]2[C@@H]3CC[C@@H]4C[C@H](O)CC[C@]4(C)[C@H]3CC[C@]12C,-6.0
nandrolone,C[C@]12CC[C@H]3[C@@H](CCC4=CC(=O)CC[C@H]34)[C@@H]1CC[C@@H]2O,-1.9484