Name,SMILES,Solubility
"2-[({2,2,4-trimethyl-6-[({2-[(2-methylprop-2-enoyl)oxy]ethoxy}carbonyl)amino]hexyl}carbamoyl)oxy]ethyl 2-methylprop-2-enoate 2-[({2,4,4-trimethyl-6-[({2-[(2-methylprop-2-enoyl)oxy]ethoxy}carbonyl)amino]hexyl}carbamoyl)oxy]ethyl 2-methylprop-2-enoate",CC(CCNC(=O)OCCOC(=O)C(C)=C)CC(C)(C)CNC(=O)OCCOC(=O)C(C)=C,-4.619923834
1-(2-ethylbutyl)cyclohexane-1-carboxylic acid,CCC(CC)CC1(CCCCC1)C(O)=O,-4.281694517
dibutyl but-2-enedioate,CCCCOC(=O)\C=C\C(=O)OCCCC,-4.3135515372
2-[(2-methylprop-2-enoyl)oxy]ethyl 2-methylprop-2-enoate,CC(=C)C(=O)OCCOC(=O)C(C)=C,-2.2613132646
methanaminium chloride,[Cl-].C[NH3+],-1.796002246
"1,2,3-trimethylbenzene; 1H-indene; 2,3-dihydro-1H-indene",Cc1cccc(C)c1C.C2Cc3ccccc3C2.C4C=Cc5ccccc45,-3.51623781
benzyl 4-hydroxybenzoate,Oc1ccc(cc1)C(=O)OCc2ccccc2,-3.3249813225
(2E)-3-phenylprop-2-enenitrile,N#C/C=C/c1ccccc1,-2.0829703418000003
2-[(3-aminophenyl)sulfonyl]ethyl hydrogen sulfate,Nc1cccc(c1)[S](=O)(=O)CCO[S](O)(=O)=O,-1.4238808493
"(3E)-4-(2,6,6-trimethylcyclohex-2-en-1-yl)but-3-en-2-one",CC(=O)/C=C/C1C(=CCCC1(C)C)C,-3.2586779358
ethyl formate,CCOC=O,0.1514941879
2-amino-4-sulfobenzoic acid,Nc1cc(ccc1C(O)=O)[S](O)(=O)=O,-1.3156745209
4-(2-aminoethyl)phenol,NCCc1ccc(O)cc1,-1.1161078312
sodium 6-amino-5-[[2-[(cyclohexylmethylamino)sulphonyl]phenyl]azo]-4-hydroxynaphthalene-2-sulphonate,[Na+].CN(C1CCCCC1)[S](=O)(=O)c2ccccc2NNC3=C4C(=O)C=C(C=C4C=CC3=N)[S]([O-])(=O)=O,-2.7116859389
2-butoxyethyl benzoate,CCCCOCCOC(=O)c1ccccc1,-3.3224225356
2-methoxy-4-nitroaniline,COc1cc(ccc1N)[N+]([O-])=O,-3.2045127381
zinc(2+) ion sulfanediide,S=[Zn],-2.9676237394
2-({3-[bis(carboxymethyl)amino]propyl}(carboxymethyl)amino)acetic acid,OC(=O)CN(CCCN(CC(O)=O)CC(O)=O)CC(O)=O,-1.4690725372
"3,4,5-trifluorophenol",Oc1cc(F)c(F)c(F)c1,-0.1536096917
hexanoic acid,CCCCCC(O)=O,-1.0522193787
"1,2,3-tributyl 2-hydroxypropane-1,2,3-tricarboxylate",CCCCOC(=O)CC(O)(CC(=O)OCCCC)C(=O)OCCCC,-3.5452709716000004
"(2,4-dimethylcyclohex-3-en-1-yl)methyl acetate",CC1C=C(C)CCC1COC(C)=O,-3.2503985577
2-ethylhexyl cyanoacetate,CCCCC(CC)COC(=O)CC#N,-3.2864784846
tetralead trioxide sulphate,[Pb++].[O-][S]([O-])(=O)=O.O=[Pb].O=[Pb].O=[Pb],-3.9794501756
"6-{[amino(phenyl)acetyl]amino}-3,3-dimethyl-7-oxo-4-thia-1-azabicyclo[3.2.0]heptane-2-carboxylic acid",CC1(C)S[C@@H]2[C@H](NC(=O)[C@H](N)c3ccccc3)C(=O)N2[C@H]1C(O)=O,-1.5390164423
4-[(4-aminophenyl)methyl]aniline,Nc1ccc(Cc2ccc(N)cc2)cc1,-2.2929334424000003
"6-ethoxy-2,2,4-trimethyl-1,2-dihydroquinoline",CCOc1ccc2NC(C)(C)C=C(C)c2c1,-3.332762335
nonanal,CCCCCCCCC=O,-3.1487064763
1-(2-furyl)methanamine,NCc1occc1,1.0127047417
"2,2,2-trifluoroethan-1-ol",OCC(F)(F)F,0.9998306582
"2,4,6,8,10-pentamethyl-1,3,5,7,9,2,4,6,8,10-pentaoxapentasilecane",C[Si]1O[Si](C)O[Si](C)O[Si](C)O[Si](C)O1,0.5292955703
2-(2-ethoxyethoxy)ethyl acetate,CCOCCOCCOC(C)=O,0.7539645195999999
[tris(isopropenyloxy)vinyl]silane,CC(=C)O[Si](OC(C)=C)(OC(C)=C)C=C,0.6452233386
"butane-1,4-diol",OCCCCO,1.0451691789
"hexamethyl-1,3,5,2,4,6-trioxatrisilinane",C[Si]1(C)O[Si](C)(C)O[Si](C)(C)O1,0.652738306
"propane-1,2,3-triol",OCC(O)CO,1.0357686635
tetraethylazanium bromide,[Br-].CC[N+](CC)(CC)CC,0.6774520067
tetraethylazanium chloride,[Cl-].CC[N+](CC)(CC)CC,0.7806565243000001
tripotassium methylsilanetris(olate),[K+].C[Si](O)(O)[O-],0.8786634333
"butan-2-one O,O',O''-(methylsilylidyne)trioxime",CC/C(C)=N/O[Si@](C)(O\N=C(C)\CC)O\N=C(C)\CC,-0.4792340167
peroxol,OO,0.4683422926
"2-amino-5-[(4-amino-3-sulfophenyl)[(1E)-3-sulfocyclohexa-2,5-dien-1-ylidene]methyl]-3-methylbenzene-1-sulfonic acid",[Na+].[Na+].CC1=CC(/C=C(C1=N)[S]([O-])(=O)=O)=C(/c2ccc(N)c(c2)[S](O)(=O)=O)c3ccc(N)c(c3)[S]([O-])(=O)=O,-1.7675632436000002
2-hydroxy-4-methylbenzoic acid,Cc1ccc(C(O)=O)c(O)c1,-1.1822691023
2-hydroxy-5-nitrobenzoic acid,OC(=O)c1cc(ccc1O)[N+]([O-])=O,-2.2627334080000003
"1,2-dimethyl-4-nitrobenzene",Cc1ccc(cc1C)[N+]([O-])=O,-3.1794512484
1-chloro-2-(chloromethyl)benzene,ClCc1ccccc1Cl,-3.2069094899
2-phenylacetonitrile,N#CCc1ccccc1,-3.0687460001
"4,4'-methylenebis(2,6-dimethylphenol)",Cc1cc(Cc2cc(C)c(O)c(C)c2)cc(C)c1O,-3.4088248510000003
sodium dodecylbenzenesulfonate,[Na].CCCCCCCCCCCCO[S](=O)(=O)c1ccccc1,-3.543437239
tridecan-1-ol,CCCCCCCCCCCCCO,-3.3018240282
bismuth(3+) citrate,[Bi+3].OC(CC([O-])=O)(CC([O-])=O)C([O-])=O,-4.5597626401
2-tert-butylcyclohexyl ethyl carbonate,CCOC(=O)OC1CCCCC1C(C)(C)C,-4.3211402828
"4-[4-(4-chlorophenyl)-4-hydroxypiperidin-1-yl]-N,N-dimethyl-2,2-diphenylbutanamide",[H+].[Cl-].CN(C)C(=O)C(CCN1CCC(O)(CC1)c2ccc(Cl)cc2)(c3ccccc3)c4ccccc4,-4.6731215617
hexanoyl hexanoate,CCCCCC(=O)OC(=O)CCCCC,-4.296805043
undecan-2-one,CCCCCCCCCC(C)=O,-4.2018206695
[2-(tert-butylperoxy)propan-2-yl]benzene,CC(C)(C)OOC(C)(C)c1ccccc1,-4.2909341502
2-methylheptyl 2-sulfanylacetate,CC(C)CCCCCOC(=O)CS,-4.2850368969
"octa-1,7-diene",C=CCCCCC=C,-4.0232731502
2-tert-butylcyclohexyl acetate,CC(=O)O[C@@H]1CCCC[C@@H]1C(C)(C)C,-4.2973358545
"5-chloro-2-(2,4-dichlorophenoxy)phenol",Oc1cc(Cl)ccc1Oc2ccc(Cl)cc2Cl,-4.4617160697000005
N-[3-(dimethylamino)propyl]octadecanamide,CCCCCCCCCCCCCCCCCC(=O)NCCCN(C)C,-4.5666142382
sodium 4-(4-(2-hydroxynaphthalenylazo)phenylazo)benzenesulphonate,[Na+].O[S](=O)(=O)c1ccc(cc1)N=Nc2ccc(N\N=C3/C(=O)C=Cc4ccccc34)cc2,-4.65844166
magnesium(2+) ion dihydroxide,[OH-].[OH-].[Mg++],-4.4691448782
"1,3,3-trimethyl-2-oxabicyclo[2.2.2]octane; 1-methyl-4-(prop-1-en-2-yl)cyclohex-1-ene; 2,6,6-trimethylbicyclo[3.1.1]hept-2-ene",CC(=C)C1CCC(=CC1)C.CC2=CCC3CC2C3(C)C.CC45CCC(CC4)C(C)(C)O5,-5.3356859318000005
dodecan-1-ol,CCCCCCCCCCCCO,-4.9847464515
copper thiocyanate,[Cu+].[S-]C#N,-4.8040109101
"O,O,S-tris(4-aminophenyl) thiophosphate",Nc1ccc(O[P](=S)(Oc2ccc(N)cc2)Oc3ccc(N)cc3)cc1,-5.3094071365
2-[4-[2-[4-[2-(2-methylprop-2-enoyloxy)ethoxy]phenyl]propan-2-yl]phenoxy]ethyl 2-methylprop-2-enoate,CC(=C)C(=O)OCCOc1ccc(cc1)C(C)(C)c2ccc(OCCOC(=O)C(C)=C)cc2,-5.3792018861
"(3aR,5aS,9aS,9bR)-3a,6,6,9a-tetramethyl-dodecahydronaphtho[2,1-b]furan",CC1(C)CCC[C@@]2(C)[C@H]1CC[C@@]3(C)OCC[C@H]23,-5.0994877858
"3a,6,6,9a-tetramethyl-dodecahydronaphtho[2,1-b]furan",CC1(C)CCCC2(C)C1CCC3(C)OCCC23,-5.0994877858
[(1E)-2-(diethoxymethyl)hept-1-en-1-yl]benzene,CCCCC\C(=C/c1ccccc1)C(OCC)OCC,-5.1720565184
dilanthanum(3+) ion tricarbonate,[La+3].[La+3].[O-]C([O-])=O.[O-]C([O-])=O.[O-]C([O-])=O,-5.3958921156
"N,N'-(3,3'-dimethylbiphenyl-4,4'-diyl)bis(3-oxobutanamide)",CC(=O)CC(=O)Nc1ccc(cc1C)c2ccc(NC(=O)CC(C)=O)c(C)c2,-5.3250182341
N-(4-acetamidophenyl)-3-hydroxy-2-naphthamide,CC(=O)Nc1ccc(NC(=O)c2cc3ccccc3cc2O)cc1,-5.2503495118
N-(5-chloro-2-methylphenyl)-3-hydroxynaphthalene-2-carboxamide,Cc1ccc(Cl)cc1NC(=O)c2cc3ccccc3cc2O,-5.2385590319
neodymium(3+) ion trihydroxide,[OH-].[OH-].[OH-].[Nd+3],-5.0353430041000005
"(1,3-benzothiazol-2-ylsulfanyl)(tert-butyl)amine",CC(C)(C)NSc1sc2ccccc2n1,-5.136722389
hydrogen telluride,[Te],-4.875401753
"3,7-dimethyloct-6-en-1-yl butyrate",CCCC(=O)OCCC(C)CCC=C(C)C,-5.142612080899999
3-hydroxy-N-(4-methoxyphenyl)-2-naphthamide,COc1ccc(NC(=O)c2cc3ccccc3cc2O)cc1,-5.2632246549
4-{1-[4-(cyanooxy)phenyl]ethyl}phenyl cyanate,CC(c1ccc(OC#N)cc1)c2ccc(OC#N)cc2,-5.2179508887
dichlorodioctylstannane,CCCCCCCC[Sn](Cl)(Cl)CCCCCCCC,-5.4150412012
didysprosium trioxide,[O--].[O--].[O--].[Dy+3].[Dy+3],-5.3675853562
dodecanal,CCCCCCCCCCCC=O,-5.0614595476
"2-ethyl-2-methyl-1,3-dihydroperimidine",CCC1(C)Nc2cccc3cccc(N1)c23,-3.2477605654
2-(2-{2-[(2-ethylhexanoyl)oxy]ethoxy}ethoxy)ethyl 2-ethylhexanoate,CCCCC(CC)C(=O)OCCOCCOCCOC(=O)C(CC)CCCC,-5.4201521344
"2-hydroxy-1-{1-[4-(2-hydroxy-2-methylpropanoyl)phenyl]-1,3,3-trimethyl-2,3-dihydro-1H-inden-5-yl}-2-methylpropan-1-one; 2-hydroxy-1-{3-[4-(2-hydroxy-2-methylpropanoyl)phenyl]-1,1,3-trimethyl-2,3-dihydro-1H-inden-5-yl}-2-methylpropan-1-one; 2-hydroxy-2-methyl-1-[4-(prop-1-en-2-yl)phenyl]propan-1-one",CC(=C)c1ccc(cc1)C(=O)C(C)(C)O.CC(C)(O)C(=O)c2ccc(cc2)C3(C)CC(C)(C)c4cc(ccc34)C(=O)C(C)(C)O.CC(C)(O)C(=O)c5ccc(cc5)C6(C)CC(C)(C)c7ccc(cc67)C(=O)C(C)(C)O,-5.8273288792
"2-(1-amino-9,10-dioxo-9,10-dihydroanthracen-2-yl)-5H,10H-anthra[2,3-d][1,3]oxazole-5,10-dione",Nc1c(ccc2C(=O)c3ccccc3C(=O)c12)c4oc5cc6C(=O)c7ccccc7C(=O)c6cc5n4,-5.4964129822
N-(4-ethoxyphenyl)-3-hydroxy-2-naphthamide,CCOc1ccc(NC(=O)c2cc3ccccc3cc2O)cc1,-5.311540545400001
"N-(5-chloro-2,4-dimethoxyphenyl)-3-hydroxy-2-naphthamide",COc1cc(OC)c(NC(=O)c2cc3ccccc3cc2O)cc1Cl,-5.3775405806
Vat brown 3,O=C(Nc1cccc2C(=O)c3c4[nH]c5c(cc(NC(=O)c6ccccc6)c7C(=O)c8ccccc8C(=O)c57)c4ccc3C(=O)c12)c9ccccc9,-5.647161854
1-(4-methoxyphenyl)-2-[(3-methoxyphenyl)sulfanyl]ethan-1-one,COc1ccc(cc1)C(=O)CSc2cccc(OC)c2,-5.284725265
"Anthra[2,1,9-mna]naphtho[2,3-h]acridine-5,10,15(16H)-trione",O=C1c2ccccc2C(=O)c3c4Nc5ccc6c7ccccc7C(=O)c8ccc(c4ccc13)c5c68,-5.506567842999999
"2,2'-oxybis(5,5-dimethyl-1,3,2-dioxaphosphinane) 2,2'-disulfide",CC1(C)CO[P](=S)(OC1)O[P]2(=S)OCC(C)(C)CO2,-5.393383394500001
1-methyl-4-(propan-2-yl)cyclohex-1-ene,CC(C)C1CCC(=CC1)C,-5.0103439368
"6-({bis[(5-carboxypentyl)amino]-1,3,5-triazin-2-yl}amino)hexanoic acid",OC(=O)CCCCCNc1nc(NCCCCCC(O)=O)nc(NCCCCCC(O)=O)n1,-2.5423613079
2-methyloctyl prop-2-enoate,CC(C)CCCCCCCOC(=O)C=C,-5.1999126975
2-methylundecanal,CCCCCCCCCC(C)C=O,-5.151636178
"4-{bis[4-(dimethylamino)phenyl]methyl}-N,N-dimethylaniline",CN(C)c1ccc(cc1)C(c2ccc(cc2)N(C)C)c3ccc(cc3)N(C)C,-5.458398412699999
digadolinium(3+) ion trioxalate,[Gd+3].[Gd+3].[O-]C(=O)C([O-])=O.[O-]C(=O)C([O-])=O.[O-]C(=O)C([O-])=O,-5.648400548200001
yttrium,[Y],-4.8349877189
"1,8-bis(phenylsulfanyl)-9,10-dihydroanthracene-9,10-dione",O=C1c2cccc(Sc3ccccc3)c2C(=O)c4c(Sc5ccccc5)cccc14,-5.517335043099999
"praseodymium(III,IV) oxide",[O--].[O--].[O--].[O--].[O--].[O--].[O--].[O--].[O--].[O--].[O--].[Pr+3].[Pr+3].[Pr+3].[Pr+3].[Pr+3].[Pr+3],-5.905407864500001
"4,4'-cyclohexane-1,1-diylbis(2-methylphenol)",Cc1cc(ccc1O)C2(CCCCC2)c3ccc(O)c(C)c3,-5.3715223063
calcium 3-hydroxy-4-[(E)-2-(4-methyl-2-sulfonatophenyl)diazen-1-yl]naphthalene-2-carboxylate,[Ca++].Cc1ccc(N\N=C\2C(=O)C(=Cc3ccccc23)C([O-])=O)c(c1)[S]([O-])(=O)=O,-5.5486422223
"1,4-bis(2-ethylhexyl) (2E)-but-2-enedioate",CCCCC(CC)COC(=O)\C=C\C(=O)OCC(CC)CCCC,-5.4565752567
"2,2-dimethylpropane-1,3-diyl dibenzoate",CC(C)(COC(=O)c1ccccc1)COC(=O)c2ccccc2,-5.4227803586
calcium bis(metaphosphate),[Ca++].O[PH]([O-])=O.O[PH]([O-])=O,-5.253149755
(ethoxymethoxy)cyclododecane,CCOCOC1CCCCCCCCCCC1,-5.335319967699999
"2,6-dibromo-4-[2-(3,5-dibromo-4-hydroxyphenyl)propan-2-yl]phenol",CC(C)(c1cc(Br)c(O)c(Br)c1)c2cc(Br)c(O)c(Br)c2,-5.6941064111
bis(3-methylbutyl) phthalate,CC(C)CCOC(=O)c1ccccc1C(=O)OCCC(C)C,-5.444898910599999
zinc bis(diethyldithiocarbamate),[Zn++].CCN(CC)C([S-])=S.CCN(CC)C([S-])=S,-5.5333331166
tetraphenyl m-phenylene bis(phosphate),O=[P](Oc1ccccc1)(Oc2ccccc2)Oc3cccc(O[P](=O)(Oc4ccccc4)Oc5ccccc5)c3,-5.7380720068
9H-carbazole,[nH]1c2ccccc2c3ccccc13,-5.2104276195
"1,2-dicyclohexyl benzene-1,2-dicarboxylate",O=C(OC1CCCCC1)c2ccccc2C(=O)OC3CCCCC3,-5.5126055421
Prokan,CC(=O)OC1(CCC2C3CCC4=CC(=O)CCC4(C)C3CCC12C)C(C)=O,-5.5668107327
"(9Z)-N,N-bis(2-hydroxyethyl)octadec-9-enamide",CCCCCCCC/C=C/CCCCCCCC(=O)N(CCO)CCO,-5.567720212
"1,3-diethyl 2-({4-[3-ethoxy-2-(ethoxycarbonyl)-3-oxoprop-1-en-1-yl]phenyl}methylidene)propanedioate",CCOC(=O)C(=Cc1ccc(cc1)C=C(C(=O)OCC)C(=O)OCC)C(=O)OCC,-5.6216352692
2-phenylethyl (2E)-3-phenylprop-2-enoate,O=C(OCCc1ccccc1)/C=C/c2ccccc2,-5.4019396274
N-(2-hydroxyethyl)octadecanamide,CCCCCCCCCCCCCCCCCC(=O)NCCO,-5.5152815814
N-(4-chlorophenyl)-3-hydroxy-2-naphthamide,Oc1cc2ccccc2cc1C(=O)Nc3ccc(Cl)cc3,-5.4738386427
"bis(1,2,2,6,6-pentamethylpiperidin-4-yl) 2-butyl-2-[(3,5-di-tert-butyl-4-hydroxyphenyl)methyl]propanedioate",CCCCC(Cc1cc(c(O)c(c1)C(C)(C)C)C(C)(C)C)(C(=O)OC2CC(C)(C)N(C)C(C)(C)C2)C(=O)OC3CC(C)(C)N(C)C(C)(C)C3,-5.8357203688
2-bromo-N-[4-chloro-2-(2-fluorobenzoyl)phenyl]acetamide,Fc1ccccc1C(=O)c2cc(Cl)ccc2NC(=O)CBr,-5.5693457861
Cedryl acetate,C[C@@H]1CC[C@H]2C(C)(C)C3CC12CCC3(C)OC(C)=O,-5.4266410391
12-hydroxyoctadecanoic acid,CCCCCCC(O)CCCCCCCCCCC(O)=O,-5.4883700889
"Bisbenzimidazo[2,1-b:1',2'-j]benzo[lmn][3,8]phenanthroline-6,9-dione",O=C1n2c3ccccc3nc2c4ccc5c6nc7ccccc7n6C(=O)c8ccc1c4c58,-5.633055848200001
barium 3-hydroxy-4-[(4-methyl-2-sulphonatophenyl)azo]-2-naphthoate,[Ba++].Cc1ccc(N\N=C\2C(=O)C(=Cc3ccccc23)C([O-])=O)c(c1)[S]([O-])(=O)=O,-5.7351471063
4-{2-[4-(cyanooxy)phenyl]propan-2-yl}phenyl cyanate,CC(C)(c1ccc(OC#N)cc1)c2ccc(OC#N)cc2,-5.4695583775
lauronitrile,CCCCCCCCCCCC#N,-5.2899699473
1-chloro-4-(4-chlorobenzenesulfonyl)benzene,Clc1ccc(cc1)[S](=O)(=O)c2ccc(Cl)cc2,-5.5236360799
"1-N,4-N-bis(5-methylhexan-2-yl)benzene-1,4-diamine",CC(C)CCC(C)Nc1ccc(NC(C)CCC(C)C)cc1,-5.5751336546
2-cyclododecylpropan-1-ol,CC(CO)C1CCCCCCCCCCC1,-5.451794108500001
methyl undec-10-enoate,COC(=O)CCCCCCCCC=C,-5.3975153521
"dialuminium tris[2-(2,4,5,7-tetrabromo-6-oxido-3-oxoxanthen-9-yl)-3,4,5,6-tetrachlorobenzoate]",[Al+3].[Al+3].[O-]C(=O)c1c(Cl)c(Cl)c(Cl)c(Cl)c1C2=C3C=C(Br)C(=O)C(=C3Oc4c(Br)c([O-])c(Br)cc24)Br.[O-]C(=O)c5c(Cl)c(Cl)c(Cl)c(Cl)c5C6=C7C=C(Br)C(=O)C(=C7Oc8c(Br)c([O-])c(Br)cc68)Br.[O-]C(=O)c9c(Cl)c(Cl)c(Cl)c(Cl)c9C%10=C%11C=C(Br)C(=O)C(=C%11Oc%12c(Br)c([O-])c(Br)cc%10%12)Br,-6.4900690111
[(oxobismuthanyl)oxy]bismuthanone,[O--].[O--].[O--].[Bi+3].[Bi+3],-5.777924821699999
Estrone,C[C@]12CC[C@H]3[C@@H](CCc4cc(O)ccc34)[C@@H]1CCC2=O,-5.5511481213
"2,6-di-tert-butyl-4-methylphenol",Cc1cc(c(O)c(c1)C(C)(C)C)C(C)(C)C,-5.462311288
"3,3,4,4,5,5,6,6,7,7,8,8,8-tridecafluorooctyl prop-2-enoate 3,3,4,4,5,5,6,6,7,7,8,8,9,9,10,10,10-heptadecafluorodecyl prop-2-enoate 3,3,4,4,5,5,6,6,7,7,8,8,9,9,10,10,11,11,12,12,12-henicosafluorododecyl prop-2-enoate 3,3,4,4,5,5,6,6,7,7,8,8,9,9,10,10,11,11,12,12,13,13,14,14,14-pentacosafluorotetradecyl prop-2-enoate",FC(F)(F)C(F)(F)C(F)(F)C(F)(F)C(F)(F)C(F)(F)CCOC(=O)C=C.FC(F)(F)C(F)(F)C(F)(F)C(F)(F)C(F)(F)C(F)(F)C(F)(F)C(F)(F)CCOC(=O)C=C.FC(F)(F)C(F)(F)C(F)(F)C(F)(F)C(F)(F)C(F)(F)C(F)(F)C(F)(F)C(F)(F)C(F)(F)CCOC(=O)C=C.FC(F)(F)C(F)(F)C(F)(F)C(F)(F)C(F)(F)C(F)(F)C(F)(F)C(F)(F)C(F)(F)C(F)(F)C(F)(F)C(F)(F)CCOC(=O)C=C,-6.4814770267
"2,4,6-tris(butan-2-yl)phenol",CCC(C)c1cc(C(C)CC)c(O)c(c1)C(C)CC,-5.5497933448
N-phenylnaphthalen-2-amine,N(c1ccccc1)c2ccc3ccccc3c2,-5.4959148461
oxoyttrium,O=[Y],-5.1756981481
yttrium oxide,[O--].[O--].[O--].[Y+3].[Y+3],-5.5086432075
"2,6,10-trimethylundec-9-enal",CC(CCCC(C)C=O)CCC=C(C)C,-5.496890424
"N-(1,4-dimethylpentyl)-N'-phenylbenzene-1,4-diamine",CC(C)CCC(C)Nc1ccc(Nc2ccccc2)cc1,-5.6248375610000005
(5Z)-cyclohexadec-5-en-1-one,O=C1CCCCCCCCCC\C=C/CCC1,-5.560732278400001
"17-hydroxy-3-methoxyestra-2,5(10)-diene-17-carbonitrile",COC1=CCC2=C(CCC3C2CCC4(C)C3CCC4(O)C#N)C1,-5.6832424476
"Dodecahydro-3,8,8,11a-tetramethyl-5H-3,5a-epoxynaphth(2,1-c)oxepin",CC1(C)CCCC2(C)C1CCC34COC(C)(CCC23)O4,-5.6453848366
1-methyl-4-(propan-2-yl)cyclohexane,CC1CCC(CC1)C(C)C,-5.3545731075
barium(2+) ion bis(5-chloro-2-[(E)-2-(2-hydroxynaphthalen-1-yl)diazen-1-yl]-4-methylbenzene-1-sulfonate),[Ba++].Cc1cc(N\N=C\2C(=O)C=Cc3ccccc23)c(cc1Cl)[S]([O-])(=O)=O.Cc4cc(N\N=C\5C(=O)C=Cc6ccccc56)c(cc4Cl)[S]([O-])(=O)=O,-6.156487599
(2R)-heptan-2-yl 2-[(5-chloroquinolin-8-yl)oxy]acetate (2S)-heptan-2-yl 2-[(5-chloroquinolin-8-yl)oxy]acetate,CCCCCC(C)OC(=O)COc1ccc(Cl)c2cccnc12,-5.7479695323
2-[(2-hydroxyethyl)(octadecyl)amino]ethan-1-ol,CCCCCCCCCCCCCCCCCCN(CCO)CCO,-5.7752741917
(10Z)-1-oxacycloheptadec-10-en-2-one,O=C1CCCCCCC\C=C/CCCCCCO1,-5.629397554600001
"methyl 2-amino-4-[(2,5-dichlorophenyl)carbamoyl]benzoate",COC(=O)c1ccc(NC(=O)c2cc(Cl)ccc2Cl)cc1N,-5.7900649855
1-{[3-(triethoxysilyl)propyl]sulfanyl}octan-1-one,CCCCCCCC(=O)SCCC[Si](OCC)(OCC)OCC,-5.8326804614
"1,1':3',1''-terphenyl-2'-ol",Oc1c(cccc1c2ccccc2)c3ccccc3,-5.6839101049
"(5E)-5-[(4-chlorophenyl)methylidene]-2,2-dimethylcyclopentan-1-one",CC1(C)CC\C(=C/c2ccc(Cl)cc2)C1=O,-5.6715911936
"2-{[3,3-bis(3-tert-butyl-4-hydroxyphenyl)butanoyl]oxy}ethyl 3,3-bis(3-tert-butyl-4-hydroxyphenyl)butanoate",CC(C)(C)c1cc(ccc1O)C(C)(CC(=O)OCCOC(=O)CC(C)(c2ccc(O)c(c2)C(C)(C)C)c3ccc(O)c(c3)C(C)(C)C)c4ccc(O)c(c4)C(C)(C)C,-6.2014353624
"(1-methylethyl)-1,1'-biphenyl",CC(C)c1ccc(cc1)c2ccccc2,-5.609857774299999
"4-[(4-amino-3,5-diethylphenyl)methyl]-2,6-diethylaniline",CCc1cc(Cc2cc(CC)c(N)c(CC)c2)cc(CC)c1N,-5.8485879471
2-[4-(2-{4-[2-(prop-2-enoyloxy)ethoxy]phenyl}propan-2-yl)phenoxy]ethyl prop-2-enoate,CC(C)(c1ccc(OCCOC(=O)C=C)cc1)c2ccc(OCCOC(=O)C=C)cc2,-5.999481603
"Benzenamine, N-phenyl-, styrenated",CC(c1ccccc1)c2ccc(Nc3ccc(cc3)C(C)c4ccccc4)cc2,-5.9641687617
"1,3-dimethyl-5-propylbenzene; 6,6,22,22-tetrabutyloctapentacontane; anthracene; phenylbenzene; tetraheptacontane",CCCCCCCCCCCCCCCCCCCCCCCCCCCCCCCCCCCCCCCCCCCCCCCCCCCCCCCCCCCCCCCCCCCCCCCCCC.CCCCCCCCCCCCCCCCCCCCCCCCCCCCCCCCCCCCC(CCCC)(CCCC)CCCCCCCCCCCCCCCC(CCCC)(CCCC)CCCCC.CCCc1cc(C)cc(C)c1.c2ccc(cc2)c3ccccc3.c4ccc5cc6ccccc6cc5c4,-6.8063026109
"2,6-diethylanthracene; 9,9-dipropylicosane; tricosane",CCCCCCCCCCCCCCCCCCCCCCC.CCCCCCCCCCCC(CCC)(CCC)CCCCCCCC.CCc1ccc2cc3cc(CC)ccc3cc2c1,-6.3644088649
2-ethylhexyl benzoate,CCCCC(CC)COC(=O)c1ccccc1,-5.767784581
"3,3,5-trimethylcyclohexyl 2-hydroxybenzoate",CC1CC(CC(C)(C)C1)OC(=O)c2ccccc2O,-5.816819421799999
"5,9-diethylhexadecane; anthracene; icosane",CCCCCCCCCCCCCCCCCCCC.CCCCCCCC(CC)CCCC(CC)CCCC.c1ccc2cc3ccccc3cc2c1,-6.2691310175
"methyl 4-[(2,5-dichlorophenyl)carbamoyl]-2-nitrobenzoate",COC(=O)c1ccc(cc1[N+]([O-])=O)C(=O)Nc2cc(Cl)ccc2Cl,-5.965154646
"3,7-dimethyloct-6-en-1-yl (2E)-2-methylbut-2-enoate",C\C=C(/C)C(=O)OCCC(C)CCC=C(C)C,-5.7917926889
"3,3,4,4,5,5,6,6,7,7,8,8,8-tridecafluorooctyl 2-methylprop-2-enoate",CC(=C)C(=O)OCCC(F)(F)C(F)(F)C(F)(F)C(F)(F)C(F)(F)C(F)(F)F,-6.058168845700001
"1-(4-{[4-(2,5-dioxo-2,5-dihydro-1H-pyrrol-1-yl)phenyl]methyl}phenyl)-2,5-dihydro-1H-pyrrole-2,5-dione",O=C1C=CC(=O)N1c2ccc(Cc3ccc(cc3)N4C(=O)C=CC4=O)cc2,-5.9980085438
tetradecan-1-ol,CCCCCCCCCCCCCCO,-5.787142557
diphenyl 4-(propan-2-yl)phenyl phosphate phenyl bis[4-(propan-2-yl)phenyl] phosphate triphenyl phosphate tris[4-(propan-2-yl)phenyl] phosphate,CC(C)c1ccc(O[P](=O)(Oc2ccc(cc2)C(C)C)Oc3ccc(cc3)C(C)C)cc1,-6.1371343954
trichloro(octyl)stannane,CCCCCCCC[Sn](Cl)(Cl)Cl,-6.0107803553
"N-(1,3-benzothiazol-2-ylsulfanyl)cyclohexanamine",C1CCC(CC1)NSc2sc3ccccc3n2,-5.9171426801
copper,[Cu],-5.2979382401
"3-[(7Z)-pentadec-7-en-1-yl]phenol; 3-[(7Z,10Z)-pentadeca-7,10,14-trien-1-yl]phenol; 3-[(7Z,10Z)-pentadeca-7,10-dien-1-yl]phenol; 3-pentadecylphenol",CCCCCCCCCCCCCCCc1cccc(O)c1.CCCCCCC\C=C/CCCCCCc2cccc(O)c2.CCCC/C=C\C\C=C/CCCCCCc3cccc(O)c3.Oc4cccc(CCCCCC\C=C/C/C=C\CCC=C)c4,-6.5970388257
N-(2-ethoxyphenyl)-N'-(2-ethylphenyl)ethanediamide,CCOc1ccccc1NC(=O)C(=O)Nc2ccccc2CC,-6.0175466725
oxacyclohexadecan-2-one,O=C1CCCCCCCCCCCCCCO1,-5.9037897228
"2,2'-vinylenebis[5-methylbenzoxazole]",Cc1ccc2oc(\C=C\c3oc4ccc(C)cc4n3)nc2c1,-6.0004819491
aluminium(3+) ion tris(N-nitroso-N-oxidoaniline),[Al+3].[O-]N(N=O)c1ccccc1.[O-]N(N=O)c2ccccc2.[O-]N(N=O)c3ccccc3,-6.1946491089
"N,N-diethyl-4-[(E)-2-phenyldiazen-1-yl]aniline",CCN(CC)c1ccc(cc1)N=Nc2ccccc2,-5.9821152675
neodymium(3+) ion trifluoride,[F-].[F-].[F-].[Nd+3],-5.8937682366
"2-ethyl-9,10-dihydroanthracene-9,10-dione",CCc1ccc2C(=O)c3ccccc3C(=O)c2c1,-5.9842424969
(4-methyl-4-phenylpent-1-en-2-yl)benzene,CC(C)(CC(=C)c1ccccc1)c2ccccc2,-6.0118424704
"{2-butyl-4-chloro-1-[(4-{2-[2-(triphenylmethyl)-2H-1,2,3,4-tetrazol-5-yl]phenyl}phenyl)methyl]-1H-imidazol-5-yl}methanol",CCCCc1nc(Cl)c(CO)n1Cc2ccc(cc2)c3ccccc3c4nnn(n4)C(c5ccccc5)(c6ccccc6)c7ccccc7,-6.4612511717
disodium oxotitaniumbis(olate),[O--].[O--].[O--].[Na+].[Na+].[Ti+4],-5.805457995399999
(2R)-2-ethylhexyl (2E)-3-(4-methoxyphenyl)prop-2-enoate (2S)-2-ethylhexyl (2E)-3-(4-methoxyphenyl)prop-2-enoate,CCCC[C@H](CC)COC(=O)/C=C/c1ccc(OC)cc1.CCCC[C@@H](CC)COC(=O)/C=C/c2ccc(OC)cc2,-6.4216084134
"1,4-dimethyl 2-[(E)-2-{2-oxo-1-[(2-oxo-2,3-dihydro-1H-1,3-benzodiazol-5-yl)carbamoyl]propyl}diazen-1-yl]benzene-1,4-dicarboxylate",COC(=O)c1ccc(C(=O)OC)c(c1)N=NC(C(C)=O)C(=O)Nc2ccc3NC(=O)Nc3c2,-6.3140693713
2-decyloxirane,CCCCCCCCCCC1CO1,-5.923156849500001
2-dodecyloxirane,CCCCCCCCCCCCC1CO1,-5.9846848009