Name,SMILES,Solubility
"17-hydroxy-17-(3-hydroxyprop-1-yn-1-yl)-10,13-dimethyl-1,2,6,7,8,9,10,11,12,13,14,15,16,17-tetradecahydro-3H-cyclopenta[a]phenanthren-3-one (non-preferred name)",C[C@]12CCC(=O)C=C1CC[C@@H]3[C@@H]2CC[C@@]4(C)[C@H]3CCC4(O)C#CCO,-3.526033775
1-chloro-4-methylbenzene,Cc1ccc(Cl)cc1,-3.1023856768
5-vinylbicyclo[2.2.1]hept-2-ene,C=CC1CC2CC1C=C2,-3.0798864018
"2,5,8,11-tetramethyldodec-6-yne-5,8-diol",CC(C)CCC(C)(O)C#CC(C)(O)CCC(C)C,-3.4375252922
nickel(2+) ion sulfanediide,S.[Ni],-3.022952972
iron(3+) phosphate,[Fe+3].[O-][P]([O-])([O-])=O,-3.2614644911000004
3-(3-aminobenzenesulfonyl)aniline,Nc1cccc(c1)[S](=O)(=O)c2cccc(N)c2,-3.5118956043000003
"ethyl 2,6,6-trimethylcyclohexa-1,3-diene-1-carboxylate",CCOC(=O)C1=C(C)C=CCC1(C)C,-3.411619706
"Amines, C16-18 and C18-unsatd. alkyl",CCCCCCCCCCCCCCCCN,-3.5835100427
octadecan-1-amine,CCCCCCCCCCCCCCCCCCN,-3.6312456144
3-Nitrophthalonitrile,[O-][N+](=O)c1cccc(C#N)c1C#N,-2.9373448418
"3-(2-chloroethyl)quinazoline-2,4(1H,3H)-dione",ClCCN1C(=O)Nc2ccccc2C1=O,-3.5747994393
"1-(5,5-dimethylcyclohex-1-en-1-yl)pent-4-en-1-one",CC1(C)CCC=C(C1)C(=O)CCC=C,-3.5342474855000003
2-(2-{[(2R)-2-ethylhexyl]oxy}ethoxy)ethyl prop-2-enoate 2-(2-{[(2S)-2-ethylhexyl]oxy}ethoxy)ethyl prop-2-enoate,CCCC[C@H](CC)COCCOCCOC(=O)C=C.CCCC[C@@H](CC)COCCOCCOC(=O)C=C,-3.9942741056
disodium; chromium(+3) cation; 3-(3-methyl-5-oxido-1-phenylpyrazol-4-yl)diazenyl-4-oxidobenzenesulfonate; 1-(2-oxido-5-phenyldiazenylphenyl)diazenylnaphthalen-2-olate,[Na+].[Na+].[Cr+3].Cc1nn(c([O-])c1N=Nc2cc(ccc2[O-])[S]([O-])(=O)=O)c3ccccc3.[O-]c4ccc(cc4N=Nc5c([O-])ccc6ccccc56)N=Nc7ccccc7,-2.6916066775
"4-(1-ethoxyvinyl)-3,3,5,5-tetramethylcyclohexanone",CCOC(=C)C1C(C)(C)CC(=O)CC1(C)C,-3.6433442829
(5-amino-3-hydroxy-5-oxopentylidene)-dimethylazanium chloride,[Cl-].C[N+](C)=CCC(O)CC(N)=O,0.5931295033
"1,3-dichloro-5-nitrobenzene",[O-][N+](=O)c1cc(Cl)cc(Cl)c1,-3.5843334863
cyclohexanethiol,SC1CCCCC1,-3.3672139557
tin(4+) ion disulfanediide,[S--].[S--].[Sn+4],-3.5808418514
"N-(2,6-dimethylphenyl)-2-piperazine-1,4-diium-1-ylacetamide",Cc1cccc(C)c1NC(=O)C[NH+]2CC[NH2+]CC2,0.4432827885
trisodium hydrogen carbonate carbonate,[Na+].[Na+].[Na+].OC([O-])=O.[O-]C([O-])=O,0.0508613621999999
5-Chlorothiophene-2-sulfonamide,N[S](=O)(=O)c1sc(Cl)cc1,-3.2959363681
N-(4-fluorophenyl)-2-hydroxy-N-propan-2-ylacetamide,CC(C)N(C(=O)CO)c1ccc(F)cc1,-1.1786398993
dicopper hydroxide phosphate,[OH-].[Cu++].[Cu++].[O-][P]([O-])([O-])=O,-3.7450548094
prop-2-en-1-yl heptanoate,CCCCCCC(=O)OCC=C,-3.5976237668
4-heptylphenol,CCCCCCCc1ccc(O)cc1,-3.6597017052
(4-nonylphenoxy)acetic acid,CCCCCCCCCc1ccc(OCC(O)=O)cc1,-3.8425967597
"trizinc(2+) ion bis(2-hydroxypropane-1,2,3-tricarboxylate)",[Zn++].[Zn++].[Zn++].OC(CC([O-])=O)(CC([O-])=O)C([O-])=O.OC(CC([O-])=O)(CC([O-])=O)C([O-])=O,-2.2540402576
"5-(2-methylundecan-2-yldisulfanyl)-3H-1,3,4-thiadiazole-2-thione",CCCCCCCCCC(C)(C)SSC1=NNC(=S)S1,-3.9885639112
"(4E)-3-methyl-5-(2,2,3-trimethylcyclopent-3-en-1-yl)pent-4-en-2-ol",CC(O)C(C)\C=C/C1CC=C(C)C1(C)C,-3.7860287034
2-amino-3-hydroxypropanehydrazide hydrochloride,[H+].[Cl-].NNC(=O)C(N)CO,0.5104628122
4-{1-[4-hydroxy-3-(prop-2-en-1-yl)phenyl]propyl}-2-(prop-2-en-1-yl)phenol,CC(C)(c1ccc(O)c(CC=C)c1)c2ccc(O)c(CC=C)c2,-3.9963835519
"[2-methyl-2-(2-methylpropyl)-1,3-dioxolan-4-yl]methanol",CC(C)CC1(C)OCC(CO)O1,-0.7059803773000001
Sulfur hexafluoride,F[S](F)(F)(F)(F)F,-3.6731547352
tris(6-methylheptyl)amine,CC(C)CCCCCN(CCCCCC(C)C)CCCCCC(C)C,-4.0572475801
1-benzyl-N-phenylpiperidin-4-amine,C1CN(CCC1Nc2ccccc2)Cc3ccccc3,-3.9542229462
"4-bromo-2,2-diphenylbutanoic acid",OC(=O)C(CCBr)(c1ccccc1)c2ccccc2,-4.0694912575
Aldadiene,CC12CCC(=O)C=C1C=CC3C2CCC4(C)C3CCC45CCC(=O)O5,-4.1007061575
disodium 4-[[(Z)-octadec-9-enyl]amino]-4-oxo-2-sulfonatobutanoate,[Na+].[Na+].CCCCCCCC\C=C/CCCCCCCCNC(=O)CC(C([O-])=O)[S]([O-])(=O)=O,-0.0195157831
"2,2,3,3,4,4,5,5-octafluoropentyl 2-methylprop-2-enoate",CC(=C)C(=O)OCC(F)(F)C(F)(F)C(F)(F)C(F)F,-4.0459673488
"6,6-dimethylheptanoic acid",CC(C)(C)CCCCC(O)=O,-2.4750431492
1-(methoxymethyl)-4-[4-(methoxymethyl)phenyl]benzene,COCc1ccc(cc1)c2ccc(COC)cc2,-4.0023686333
1-[({[(tetradecyloxy)carbonyl]peroxy}carbonyl)oxy]tetradecane,CCCCCCCCCCCCCCOC(=O)OOC(=O)OCCCCCCCCCCCCCC,-4.3499005787
sulfanylideneiron,S=[Fe],-3.6218288656
Dicyclopentadiene,C1C=CC2C3CC(C=C3)C12,-3.8202211698
"6,10-dimethylundecan-2-one",CC(C)CCCC(C)CCCC(C)=O,-4.0051761335
cyclooctene,C1CCC\C=C/CC1,-3.770339988
[disulfanediylbis(carbonothioylnitrilo)]tetramethane,CN(C)C(=S)SSC(=S)N(C)C,-4.1161961212
dimethoxy(2-methylpropyl)propan-2-ylsilane,CO[Si](CC(C)C)(OC)C(C)C,-4.0243009096
"tetrakis(1,2,2,6,6-pentamethylpiperidin-4-yl) butane-1,2,3,4-tetracarboxylate",CN1C(C)(C)CC(CC1(C)C)OC(=O)CC(C(CC(=O)OC2CC(C)(C)N(C)C(C)(C)C2)C(=O)OC3CC(C)(C)N(C)C(C)(C)C3)C(=O)OC4CC(C)(C)N(C)C(C)(C)C4,-4.672731896
piperidine-4-carboxylic acid hydrochloride,[H+].[Cl-].OC(=O)C1CCNCC1,0.3840315922999999
"3-ethyl 5-methyl 4-(2-chlorophenyl)-1,4-dihydro-2-[2-(1,3-dihydro-1,3-dioxo-(2H)isoindol-2-yl)-ethoxymethyl]-6-methyl-3,5-pyridinedicarboxylate",CCOC(=O)C1=C(COCCN2C(=O)c3ccccc3C2=O)NC(=C(C1c4ccccc4Cl)C(=O)OC)C,-4.5011269518
prop-2-en-1-yl 3-cyclohexylpropanoate,C=CCOC(=O)CCC1CCCCC1,-4.0624492536000005
"methyl 2-[(4-ethoxy-6-methylamino-1,3,5-triazin-2-yl)carbamoylsulfamoyl]benzoate",CCOc1nc(NC)nc(NC(=O)N[S](=O)(=O)c2ccccc2C(=O)OC)n1,-4.387910768899999
calcium carbonate,[Ca++].[O-]C([O-])=O,-3.7802652447
4-[(4-amino-3-methylphenyl)methyl]-2-methylaniline,Cc1cc(Cc2ccc(N)c(C)c2)ccc1N,-4.1506087086
tributyl-2-thiourea,CCCCNC(=S)N(CCCC)CCCC,-4.1840665057
bis(2-ethylhexyl)amine,CCCCC(CC)CNCC(CC)CCCC,-4.2367225564
4-[(4-amino-3-chlorophenyl)methyl]-2-chloroaniline,Nc1ccc(Cc2ccc(N)c(Cl)c2)cc1Cl,-4.2868907228
"(4E)-3,3-dimethyl-5-(2,2,3-trimethylcyclopent-3-en-1-yl)pent-4-en-2-ol",CC(O)C(C)(C)\C=C\C1CC=C(C)C1(C)C,-4.2167463336
"bis(2,4,4-trimethylpentyl)phosphinic acid",CC(CC(C)(C)C)C[P](O)(=O)CC(C)CC(C)(C)C,-4.366128471100001
3-(4-fluorophenyl)-1-(4-sulfamoylphenyl)thiourea,N[S](=O)(=O)c1ccc(NC(=S)Nc2ccc(F)cc2)cc1,-2.9899599684
"ethyl 1-(4-methoxyphenyl)-7-oxo-6-[4-(2-oxopiperidin-1-yl)phenyl]-1H,4H,5H,6H,7H-pyrazolo[3,4-c]pyridine-3-carboxylate",CCOC(=O)c1nn(c2ccc(OC)cc2)c3C(=O)N(CCc13)c4ccc(cc4)N5CCCCC5=O,-4.6282058436
"7-chloro-5-(2-chlorophenyl)-2-oxo-2,3-dihydro-1H-1,4-benzodiazepin-4-ium-4-olate",ON1CC(=O)N=C2C=CC(=CC2=C1c3ccccc3Cl)Cl,-4.4653328209
hexane,CCCCCC,-3.9441703352
"N',N''''-hexane-1,6-diylbis(1-cyanoguanidine)",NC(NC#N)=NCCCCCCN=C(N)NC#N,-4.4346903729000005
"1,5-dimethyl-1-vinylhex-4-en-1-yl propionate",CCC(=O)OC(C)(CCC=C(C)C)C=C,-4.3823578934
trisodium; chromium(+3) cation; 4-(3-methyl-5-oxido-1-phenylpyrazol-4-yl)diazenyl-3-oxidonaphthalene-1-sulfonate,[Na+].[Na+].[Na+].[Cr+3].Cc1nn(c([O-])c1N=Nc2c([O-])cc(c3ccccc23)[S]([O-])(=O)=O)c4ccccc4.Cc5nn(c([O-])c5N=Nc6c([O-])cc(c7ccccc67)[S]([O-])(=O)=O)c8ccccc8,-1.2121028981
docosyltrimethylazanium methyl sulfate,CCCCCCCCCCCCCCCCCCCCCC[N+](C)(C)C.CO[S]([O-])(=O)=O,-4.8359730654
10-Methoxyiminostilbene,COC1=Cc2ccccc2Nc3ccccc13,-4.5144193944
"3,7,11,15-tetramethylhexadec-1-en-3-ol",CC(C)CCCC(C)CCCC(C)CCCC(C)(O)C=C,-4.7086538251
"[4-[(4-diethylaminophenyl)-phenylmethylidene]-1-cyclohexa-2,5-dienylidene]-diethylazanium; hydrogen sulfate",CCN(CC)c1ccc(cc1)[C+](c2ccccc2)c3ccc(cc3)N(CC)CC.O[S]([O-])(=O)=O,-2.0572883439
"13-ethyl-3-methoxy-6,7,11,12,13,14,15,16-octahydro-17H-cyclopenta[a]phenanthren-17-one (non-preferred name)",CC[C@]12CCC3=C(CCc4cc(OC)ccc34)[C@@H]1CCC2=O,-4.772922847
"3-methoxyestra-2,5(10)-dien-17-ol",COC1=CCC2=C(CC[C@@H]3[C@@H]2CC[C@]4(C)[C@@H](O)CC[C@@H]34)C1,-4.7610719313
"2-ethyl-2-[2-(6-methoxy-3,4-dihydronaphthalen-1(2H)-ylidene)ethyl]cyclopentane-1,3-dione",CCC1(C/C=C2/CCCc3cc(OC)ccc23)C(=O)CCC1=O,-4.838817118500001
manganese(2+) ion carbonate,[Mn++].[O-]C([O-])=O,-4.5005872378
"7-chloro-5-(2-chlorophenyl)-2-oxo-2,3-dihydro-1H-1,4-benzodiazepin-3-yl acetate",CC(=O)OC1N=C(c2ccccc2Cl)c3cc(Cl)ccc3NC1=O,-5.028666922799999
"3-methoxyestra-2,5(10)-dien-17-one",COC1=CCC2=C(CCC3C2CCC4(C)C3CCC4=O)C1,-4.9798745042000006
N-phenylnaphthalen-1-amine,N(c1ccccc1)c2cccc3ccccc23,-4.8638916314
2-(benzoyloxy)ethyl benzoate,O=C(OCCOC(=O)c1ccccc1)c2ccccc2,-5.0700925015
oxonickel,O=[Ni],-4.5191656494
"2,4a,5,8a-tetramethyl-1,2,3,4,4a,7,8,8a-octahydronaphthalen-1-yl formate",CC1CCC2(C)C(=CCCC2(C)C1OC=O)C,-5.0311421132
"methyl 3-(3,5-di-tert-butyl-4-hydroxyphenyl)propanoate",COC(=O)CCc1cc(c(O)c(c1)C(C)(C)C)C(C)(C)C,-5.1235829068
"3,9-bis(cyclohex-3-en-1-yl)-2,4,8,10-tetraoxaspiro[5.5]undecane",C1CC(CC=C1)C2OCC3(CO2)COC(OC3)C4CCC=CC4,-5.2397354439
"4-(3,4,5,6-tetramethyloctan-2-yl)phenol",CCC(C)C(C)C(C)CCc1ccc(O)cc1,-5.1824053879
"13-ethyl-3-methoxy-1,4,6,7,8,9,11,12,13,14,15,16-dodecahydro-17H-cyclopenta[a]phenanthren-17-one (non-preferred name)",CC[C@]12CC[C@H]3[C@@H](CCC4=C3CC=C(C4)OC)[C@@H]1CCC2=O,-5.363817292
"1,2,4-tris(8-methylnonyl) benzene-1,2,4-tricarboxylate",CC(C)CCCCCCCOC(=O)c1ccc(C(=O)OCCCCCCCC(C)C)c(c1)C(=O)OCCCCCCCC(C)C,-5.7065739478
dicopper(2+) ion chloride trihydroxide,[OH-].[OH-].[OH-].[Cl-].[Cu++].[Cu++],-5.2539851522
zinc bis(dimethyldithiocarbamate),[Zn++].CN(C)C([S-])=S.CN(C)C([S-])=S,-5.4987140306
"6,10,14-trimethylpentadecan-2-one",CC(C)CCCC(C)CCCC(C)CCCC(C)=O,-5.4746775177
oxomanganese,O=[Mn],-4.921453892
"6-O-acetyl-1,3,4-tri-O-isobutyryl-beta-D-fructofuranosyl 6-O-acetyl-2,3,4-tri-O-isobutyryl-alpha-D-glucopyranoside",CC(C)C(=O)OC[C@H]1O[C@@](COC(C)=O)(O[C@H]2O[C@H](COC(C)=O)[C@@H](OC(=O)C(C)C)[C@H](OC(=O)C(C)C)[C@H]2OC(=O)C(C)C)[C@@H](OC(=O)C(C)C)[C@@H]1OC(=O)C(C)C,-6.0735348087
manganese,[Mn],-4.894774805
lanthanum(3+) ion trifluoride,[F-].[F-].[F-].[La+3],-5.535398327699999
"1,3-diphenylpropane-1,3-dione",O=C(CC(=O)c1ccccc1)c2ccccc2,-5.6579029620000005
4-methyl-2-[(2-nitrophenyl)diazenyl]phenol,CC1=CC(=N/Nc2ccccc2[N+]([O-])=O)\C(=O)C=C1,-5.7475958635
oxocopper,O=[Cu],-5.3051166643
tetrairon tris(pyrophosphate),[Fe+3].[Fe+3].[Fe+3].[Fe+3].[O-][P]([O-])(=O)O[P]([O-])([O-])=O.[O-][P]([O-])(=O)O[P]([O-])([O-])=O.[O-][P]([O-])(=O)O[P]([O-])([O-])=O,-6.3076085303
dibutylbis(dodecylsulfanyl)stannane,CCCCCCCCCCCCS[Sn](CCCC)(CCCC)SCCCCCCCCCCCC,-6.295424349
"1,10-didocosyl decanedioate",CCCCCCCCCCCCCCCCCCCCCCOC(=O)CCCCCCCCC(=O)OCCCCCCCCCCCCCCCCCCCCCC,-6.405660228
"6-Methylene-3,20-dioxopregn-4-en-17-yl acetate",CC(=O)OC1(CCC2C3CC(=C)C4=CC(=O)CCC4(C)C3CCC12C)C(C)=O,-6.1077931611
"N,N-dibutyl({[(dibutylcarbamothioyl)sulfanyl]methyl}sulfanyl)carbothioamide",CCCCN(CCCC)C(=S)SCSC(=S)N(CCCC)CCCC,-6.2405235691
"ethyl 1-(4-methoxyphenyl)-6-(4-nitrophenyl)-7-oxo-1H,4H,5H,6H,7H-pyrazolo[3,4-c]pyridine-3-carboxylate",CCOC(=O)c1nn(c2ccc(OC)cc2)c3C(=O)N(CCc13)c4ccc(cc4)[N+]([O-])=O,-6.6187193264
dimethyl[3-(octadecyloxy)propyl]amine,CCCCCCCCCCCCCCCCCCOCCCN(C)C,-6.852054029800001
tantalum,[Ta],-6.9291741838
2-(2-hydroxybenzoyl)-5-methoxyphenol,COc1ccc(c(O)c1)C(=O)c2ccccc2O,-7.2738841077
2-oxo-N-[4-({4-[(2-oxoazepane-1-carbonyl)amino]phenyl}methyl)phenyl]azepane-1-carboxamide,O=C1CCCCCN1C(=O)Nc2ccc(Cc3ccc(NC(=O)N4CCCCCC4=O)cc3)cc2,-7.763261261599999
{4-[(4-methylphenyl)sulfanyl]phenyl}(phenyl)methanone,Cc1ccc(Sc2ccc(cc2)C(=O)c3ccccc3)cc1,-7.6154082599
"bis(2,3,4,4-tetramethylpentan-2-yl)trisulfane",CC(C(C)(C)C)C(C)(C)SSSC(C)(C)C(C)C(C)(C)C,-9.129966133
zinc(2+) ion dinitrate,[Zn++].[O-][N+]([O-])=O.[O-][N+]([O-])=O,0.7217551526
"[(7,7-dimethyloctanoyl)oxy]bario 7,7-dimethyloctanoate",[Ba++].CC(C)(C)CC(C)(C)CC([O-])=O.CC(C)(C)CC(C)(C)CC([O-])=O,-1.698832456
tetrabutylphosphonium bromide,[Br-].CCCC[P+](CCCC)(CCCC)CCCC,0.41483097
"2-aminopropane-1,3-diol",NC(CO)CO,0.9744271172
disilver(1+) sulfate,[Ag+].[Ag+].O[S](O)(=O)=O,-1.5849835397999998
manganese(2+) ion dichloride,O.O.O.O.[Cl-].[Cl-].[Mn++],0.5826413073
"2-amino-2-(hydroxymethyl)propane-1,3-diol",NC(CO)(CO)CO,0.7906283690000001
"N,N-diethylethanaminium bromide",[Br-].CC[NH+](CC)CC,0.5951972853999999
tris(2-hydroxyethyl)methylammonium methyl sulphate,CO[S]([O-])(=O)=O.C[N+](CCO)(CCO)CCO,0.3926664196
disodium 2-hexadecyl-3-(2-sulfonatophenoxy)benzenesulfonate,[Na+].[Na+].CCCCCCCCCCCCCCCCc1c(Oc2ccccc2[S]([O-])(=O)=O)cccc1[S]([O-])(=O)=O,0.2227653537
diammonium 2-[(carboxylatomethyl)disulfanyl]acetate,[NH4+].[NH4+].[O-]C(=O)CSSCC([O-])=O,0.4596030518
"D-Glucitol, propoxylated",OCCCOCC(OCCCO)C(OCCCO)C(OCCCO)C(COCCCO)OCCCO,0.053341445
"5-methyl-[1,2,4]triazolo[1,5-a]pyrimidin-7-ol",CC1=CC(=O)N2NC=NC2=N1,-1.3471955313
"{[5-(6-amino-9H-purin-9-yl)-3,4-dihydroxyoxolan-2-yl]methoxy}[({[hydroxy(sodiooxy)phosphoryl]oxy}(sodiooxy)phosphoryl)oxy]phosphinic acid",[Na+].[Na+].Nc1ncnc2n(cnc12)[C@@H]3O[C@H](CO[P](O)(=O)O[P]([O-])(=O)O[P](O)([O-])=O)[C@@H](O)[C@H]3O,0.0168879621
"phosphocreatine, sodium salt",[Na+].[Na+].CN(CC(O)=O)C(N)=N[P]([O-])([O-])=O,0.3126582838
barium(2+) ion bis(2-ethylhexanoate),[Ba++].CCCCC(CC)C([O-])=O.CCCCC(CC)C([O-])=O,-0.905288847
"sodium (2R,3R,4S,5R,6R)-2,3,4,5,6,7-hexahydroxyheptanoate",[Na+].OC[C@@H](O)[C@@H](O)[C@H](O)[C@@H](O)[C@@H](O)C([O-])=O,0.3170701984
disodium 2-oxopentanedioate,[Na+].[Na+].[O-]C(=O)CCC(=O)C([O-])=O,0.4295256052
"decane-1,10-diamine",NCCCCCCCCCCN,1.5277010030000002
disodium 4-[(2-methylnonyl)oxy]-4-oxo-3-sulfonatobutanoate,[Na+].[Na+].CC(C)CCCCCCCO.OC(=O)CC(C(O)=O)[S](O)(=O)=O,0.0810654195
"l-Glutamic acid, N-coco acyl derivs., disodium salts",[Na+].[Na+].N[C@@H](CCC([O-])=O)C([O-])=O,0.3719654625999999
zinc dibenzoate,[Zn++].[O-]C(=O)c1ccccc1.[O-]C(=O)c2ccccc2,-1.8168417251
2-methyloxirane,CC1CO1,0.8325704879000001
N-(butoxymethyl)prop-2-enamide,CCCCOCNC(=O)C=C,-0.6536630282
dibromane,[Br-],-0.3762292432999999
sodium 3-[(2-carboxyethyl)(dodecyl)amino]propanoate,[Na+].CCCCCCCCCCCCN(CCC(O)=O)CCC([O-])=O,-0.0407296334
sodium [methyl(oleoyl)amino]acetate,[Na+].CCCCCCCC/C=C/CCCCCCCC(=O)N(C)CC([O-])=O,-0.0975222259999999
(2R)-2-hydroxy-N-(2-hydroxyethyl)propanamide,CC(O)C(=O)NCCO,1.3070323786
barium bis(dihydrogenorthophosphate),[Ba++].[Ba++].[Ba++].[O-][P]([O-])([O-])=O.[O-][P]([O-])([O-])=O,-1.3456118943000002
oxolan-2-ylmethanol,OCC1CCCO1,0.3887739198
{2-[(2-methylprop-2-enoyl)oxy]ethoxy}phosphonic acid,CC(=C)C(=O)OCCO.O[P](O)(O)=O,-0.9602557176
sodium 4-ethenylbenzene-1-sulfonate,[Na+].[O-][S](=O)(=O)c1ccc(C=C)cc1,-0.0332510813
"pentane-2,4-dione",CC(=O)CC(C)=O,0.1864485079
"1,3-dimethyl propanedioate",COC(=O)CC(=O)OC,0.0273419683
"trimagnesium(2+) ion bis(2-hydroxypropane-1,2,3-tricarboxylate)",[Mg].[Mg].[Mg].OC(=O)CC(O)(CC(O)=O)C(O)=O.OC(=O)CC(O)(CC(O)=O)C(O)=O,-1.5461258216999998
"disodium (2R,3R,4S,5R,6R)-2,3,4,5,6,7-hexahydroxyheptanoate (2S,3R,4S,5R,6R)-2,3,4,5,6,7-hexahydroxyheptanoate",[Na+].OC[C@@H](O)[C@@H](O)[C@H](O)[C@@H](O)C(O)C([O-])=O,0.7066663199
"1,1,3,3-tetramethylguanidine",CN(C)C(=N)N(C)C,0.9386229258
"1,3-dihydroxypropan-2-yl 2-sulfanylacetate 2,3-dihydroxypropyl 2-sulfanylacetate",OCC(O)COC(=O)CS,0.7793742068
2-{2-[2-(2-hydroxyethoxy)ethoxy]ethoxy}ethan-1-ol,OCCOCCOCCOCCO,0.7116903978
"3-methylpentane-1,5-diol",CC(CCO)CCO,0.927470714
bis(2-hydroxyethyl)azanium acetate,CC(O)=O.OCCNCCO,0.7820188759000001
methanol,CO,1.4942803838999998
tris(2-hydroxyethyl)azanium acetate,CC(O)=O.OCCN(CCO)CCO,0.6793511375
Sulfolane,O=[S]1(=O)CCCC1,-0.079806903
2-hydroxyethyl 2-methylprop-2-enoate,CC(=C)C(=O)OCCO,-0.1144208137
3-[1-hydroxy-2-(methylamino)ethyl]phenol hydrochloride,Cl.CNCC(O)c1cccc(O)c1,-0.308924931
3-methoxy-3-methylbutan-1-ol,COC(C)(C)CCO,-0.072529286
"zinc O,O,O',O'-tetrabutyl bis(phosphorodithioate)",[Zn++].CCCCO[P]([S-])(=S)OCCCC.CCCCO[P]([S-])(=S)OCCCC,-2.5083839395
sodium 4-[(E)-2-(2-hydroxynaphthalen-1-yl)diazen-1-yl]naphthalene-1-sulfonate,[Na+].[O-][S](=O)(=O)c1ccc(N\N=C2\C(=O)C=Cc3ccccc23)c4ccccc14,-2.4263930478
zinc(2+) ion bis(2-ethylhexanoate),[Zn++].CCCCC(CC)C([O-])=O.CCCCC(CC)C([O-])=O,0.4554354087
sodium bis(butan-2-yl) sulfanidyl(sulfanylidene)phosphonite,[Na+].CCC(C)O[P]([S-])(=S)OC(C)CC,-2.4221431699
6-[(1-formyloctyl)amino]hexanoic acid,CC(C)CCCCCC(=O)NCCCCCC(O)=O,-2.7708536118
nonanoic acid,CCCCCCCCC(O)=O,-2.7221977641
6-hydroxy-2-naphthoic acid,OC(=O)c1ccc2cc(O)ccc2c1,-3.2789428853
Nickel subsulfide,[Ni][Ni][Ni]=[S]=S,-4.5143091680000005
1-tert-butyl-4-vinylbenzene,CC(C)(C)c1ccc(C=C)cc1,-4.5633510279000005
"3,5-dimethylbenzoyl chloride",Cc1cc(C)cc(c1)C(Cl)=O,-3.3292897203
copper(II) carbonate--copper(II) hydroxide (1:1),[OH-].[OH-].[Cu++].[Cu++].[O-]C([O-])=O,-5.1432191168
"2,5-diphenyl-1,3-oxazole",o1c(cnc1c2ccccc2)c3ccccc3,-5.5532102962
dioxomanganese,O=[Mn]=O,-6.1610484037
"2-amino-2-ethylpropane-1,3-diol",CCC(N)(CO)CO,0.9015785325
bis(pyridin-1-ium) [(oxidodioxochromio)oxy]chromiumoylolate,O[Cr](=O)(=O)O[Cr](O)(=O)=O.c1ccncc1.c2ccncc2,0.3990871293999999
"cyclohexane-1,2-diamine",[NH3+][C@H]1CCCC[C@H]1[NH3+],0.8890064826
sodium 2-sulfanylethan-1-olate,[Na+].[O-]CCS,0.9537303441
"1,3,5-tris(oxiran-2-ylmethyl)-1,3,5-triazinane-2,4,6-trione",O=C1N(CC2CO2)C(=O)N(CC3CO3)C(=O)N1CC4CO4,-1.495423095
"2,4,6-tris[(dimethylamino)methyl]phenol",CN(C)Cc1cc(CN(C)C)c(O)c(CN(C)C)c1,0.5055163708
cesium formate,[Cs+].OC=O,0.6746872011
2-[2-(carboxymethoxy)ethoxy]acetic acid,OC(=O)COCCOCC(O)=O,0.6709250275
N-(methoxymethyl)-2-methylprop-2-enamide,COCNC(=O)C(C)=C,0.7919653131000001
pentasodium 2-[bis({2-[bis(carboxylatomethyl)amino]ethyl})amino]acetate,[Na+].[Na+].[Na+].[Na+].[Na+].[O-]C(=O)CN(CCN(CC([O-])=O)CC([O-])=O)CCN(CC([O-])=O)CC([O-])=O,0.2012984367
"N-butyl-2,2,6,6-tetramethylpiperidin-4-amine",CCCCNC1CC(C)(C)NC(C)(C)C1,0.5746150304
hydrogen sulfate; tetrakis(hydroxymethyl)phosphanium; urea,NC(N)=O.OC[P+](CO)(CO)CO.O[S]([O-])(=O)=O,0.4036921179
"trisodium 7-[[2-[(aminocarbonyl)amino]-4-[(4-amino-6-chloro-1,3,5-triazin-2-yl)amino]phenyl]azo]naphthalene-1,3,5-trisulphonate",[Na+].[Na+].[Na+].NC(=O)Nc1cc(Nc2nc(N)nc(Cl)n2)ccc1N=Nc3cc4c(cc(cc4[S]([O-])(=O)=O)[S]([O-])(=O)=O)cc3[S]([O-])(=O)=O,-1.0000005869
disodium disilicate,[Na+].[Na+].[O-][Si](=O)O[Si]([O-])=O,0.5846760173
tert-butyl hydroperoxide,CC(C)(C)OO,0.8846472262999999
"sodium 4-{4-[(E)-2-(3-chloro-2-hydroxy-5-nitrophenyl)diazen-1-yl]-3-methyl-5-oxo-4,5-dihydro-1H-pyrazol-1-yl}benzene-1-sulfonate",[Na+].CC1=NN(C(=O)C1N\N=C\2C=C(C=C(Cl)C2=O)[N+]([O-])=O)c3ccc(cc3)[S]([O-])(=O)=O,-0.8385771725
Cobaltous nitrate hexahydrate,O.O.O.O.O.O.[Co++].[O-][N+]([O-])=O.[O-][N](=O)=O,0.3618761934
tetrakis(hydroxymethyl)phosphanium; urea; chloride,[Cl-].NC(N)=O.OC[P+](CO)(CO)CO,0.4251118411999999
"N,N,N',N'-tetrakis(2-hydroxypropyl)hexanediamide",CC(O)CN(CC(C)O)C(=O)CCCCC(=O)N(CC(C)O)CC(C)O,0.2109933627
3-sulfanylpropanoic acid,OC(=O)CCS,0.754917543
methyl L-serinate hydrochloride,[H+].[Cl-].COC(=O)C(N)CO,0.5774207675
"(3S)-3-hydroxy-4,4-dimethyloxolan-2-one",CC1(C)COC(=O)C1O,0.6515307225
sodium; 4-(5-chloro-2-oxido-4-sulfamoylphenyl)diazenyl-5-methyl-2-phenylpyrazol-3-olate; chromium(+3) cation,[Na+].[Cr+3].Cc1nn(c([O-])c1N=Nc2cc(Cl)c(cc2[O-])[S](N)(=O)=O)c3ccccc3.Cc4nn(c([O-])c4N=Nc5cc(Cl)c(cc5[O-])[S](N)(=O)=O)c6ccccc6,-2.6924708965
2-({2-[2-(dimethylamino)ethoxy]ethyl}(methyl)amino)ethan-1-ol,CN(C)CCOCCN(C)CCO,0.4764657364
aminoformonitrile,NC#N,1.1245149893000002
1-(2-aminoethyl)imidazolidin-2-one,NCCN1CCNC1=O,0.6335459397
"tetrasodium 4-amino-5-hydroxy-3,6-bis[(E)-2-{4-[2-(sulfonatooxy)ethanesulfonyl]phenyl}diazen-1-yl]naphthalene-2,7-disulfonate",[Na+].[Na+].[Na+].[Na+].Nc1c(N=Nc2ccc(cc2)[S](=O)(=O)CCO[S]([O-])(=O)=O)c(cc3C=C(/C(=N/Nc4ccc(cc4)[S](=O)(=O)CCO[S]([O-])(=O)=O)C(=O)c13)[S]([O-])(=O)=O)[S]([O-])(=O)=O,-0.2552865172
"benzyldimethyl(2-{2-[4-(2,4,4-trimethylpentan-2-yl)phenoxy]ethoxy}ethyl)azanium chloride",[Cl-].CC(C)(C)CC(C)(C)c1ccc(OCCOCC[N+](C)(C)Cc2ccccc2)cc1,0.0729096485
"(2R)-2,4-dihydroxy-N-(3-hydroxypropyl)-3,3-dimethylbutanamide",CC(C)(CO)[C@@H](O)C(=O)NCCCO,0.3944261529
"(3-{3,5-bis[3-(dimethylamino)propyl]-1,3,5-triazinan-1-yl}propyl)dimethylamine",CN(C)CCCN1CN(CCCN(C)C)CN(CCCN(C)C)C1,0.1642130702
Chromium acetate,[Cr].CC([O-])=O,0.6534905512