Name,SMILES,Solubility
heptanal,CCCCCCC=O,-1.7501244285
tert-butyl prop-2-enoate,CC(C)(C)OC(=O)C=C,-1.8045937153
"2-Hydroxy-N,N-dimethylpropanamide",CC(O)C(=O)N(C)C,1.6302351258
azanium 2-hydroxyacetate,[NH4+].OCC([O-])=O,1.7009159091
"1,1'-binaphthalene-8,8'-dicarboxylic acid",OC(=O)c1cccc2cccc(c3cccc4cccc(C(O)=O)c34)c12,-2.2334403365
2-methylpropyl prop-2-enoate,CC(C)COC(=O)C=C,-1.8067597771
3-phenylbutanal,CC(CC=O)c1ccccc1,-1.86983286
4-amino-3-methylphenol,Cc1cc(O)ccc1N,-1.7894220529
methyl 2-oxo-2-phenylacetate,COC(=O)C(=O)c1ccccc1,-1.9142373478
disodium 6-amino-3-sulfo-2-[(E)-2-{4-[(E)-2-(4-sulfonatophenyl)diazen-1-yl]phenyl}diazen-1-yl]naphthalen-1-olate,[Na+].[Na+].Nc1ccc2c([O-])c(N=Nc3ccc(cc3)N=Nc4ccc(cc4)[S]([O-])(=O)=O)c(cc2c1)[S](O)(=O)=O,-0.4603540840999999
4-(aminomethyl)-2-methoxyphenol hydrochloride,[Cl].COc1cc(CN)ccc1O,0.0188462521
"disodium 4-{4-[(E)-2-[5-(2-bromoprop-2-enamido)-2-sulfonatophenyl]diazen-1-yl]-3-methyl-5-oxo-4,5-dihydro-1H-pyrazol-1-yl}-2,5-dichlorobenzene-1-sulfonate",[Na+].[Na+].CC1=NN(C(=O)C1N=Nc2cc(NC(=O)C(Br)=C)ccc2[S]([O-])(=O)=O)c3cc(Cl)c(cc3Cl)[S]([O-])(=O)=O,-0.5501699754
"hexasodium 6,13-dichloro-3,10-bis({[2-({4-chloro-6-[(2,4-disulfonatophenyl)amino]-1,3,5-triazin-2-yl}amino)ethyl]amino})-5,12-dioxa-7,14-diazapentacene-4,11-disulfonate",[Na+].[Na+].[Na+].[Na+].[Na+].[Na+].[O-][S](=O)(=O)c1ccc(Nc2nc(Cl)nc(NCCNc3ccc4N=C5C(=C6Oc7c(ccc(NCCNc8nc(Cl)nc(Nc9ccc(cc9[S]([O-])(=O)=O)[S]([O-])(=O)=O)n8)c7[S]([O-])(=O)=O)N=C6C(=C5Oc4c3[S]([O-])(=O)=O)Cl)Cl)n2)c(c1)[S]([O-])(=O)=O,-0.8795540191
"tris(2-hydroxypropan-1-aminium) 2-hydroxypropane-1,2,3-tricarboxylate",CC(O)CN.OC(=O)CC(O)(CC(O)=O)C(O)=O,0.8629201268000001
"2-methylbenzene-1,3-diol",Cc1c(O)cccc1O,0.1927727267
2-methylbut-3-en-2-ol,CC(C)(O)C=C,0.351057238
dilithium adipate,[Li+].[Li+].[O-]C(=O)CCCCC([O-])=O,0.0846221527
dilithium(1+) ion decanedioate,[Li+].[Li+].[O-]C(=O)CCCCCCCCC([O-])=O,-0.0473478928
dilithium(1+) ion nonanedioate,[Li+].[Li+].[O-]C(=O)CCCCCCCC([O-])=O,-0.017921985
"7-amino-4-hydroxy-3-[[4-[(4-sulphophenyl)azo]phenyl]azo]naphthalene-2-sulphonic acid, compound with 2,2',2''-nitrilotriethanol (1:2)",Nc1ccc2C(=O)C(=N/Nc3ccc(cc3)N=Nc4ccc(cc4)[S](O)(=O)=O)\C(=Cc2c1)[S](O)(=O)=O.OCCN(CCO)CCO.OCCN(CCO)CCO,-0.6359046156
"disodium 7-[(dichloro-1,3,5-triazin-2-yl)amino]-4-hydroxy-3-(2-{4-[2-(sulfonatooxy)ethanesulfonyl]phenyl}diazen-1-yl)naphthalene-2-sulfonate",[Na+].[Na+].Oc1c2ccc(Nc3nc(Cl)nc(Cl)n3)cc2cc(c1N=Nc4ccc(cc4)[S](=O)(=O)CCO[S]([O-])(=O)=O)[S]([O-])(=O)=O,-1.5783823574
"2-hydroxypropanoic acid; 7-{[bis({[3-(diethylamino)propyl]amino})-1,3,5-triazin-2-yl]amino}-4-hydroxy-3-[(E)-2-(2-oxo-2,3-dihydro-1H-1,3-benzodiazol-5-yl)diazen-1-yl]naphthalene-2-sulfonic acid",CCN(CC)CCCNc1nc(NCCCN(CC)CC)nc(Nc2ccc3c(O)c(N=Nc4ccc5NC(=O)Nc5c4)c(cc3c2)[S](O)(=O)=O)n1.CC(O)C(O)=O,-0.64043406
tin(4+) disulfate,[Sn++].[O-][S]([O-])(=O)=O,-0.0578238563
"4-[(2,4-dichloro-5-methoxyphenyl)amino]-6-methoxy-7-[3-(4-methylpiperazin-1-yl)propoxy]quinoline-3-carbonitrile",COc1cc(Nc2c(cnc3cc(OCCCN4CCN(C)CC4)c(OC)cc23)C#N)c(Cl)cc1Cl,-4.8795513261000005
acetaldehyde oxime,C/C=N/O,0.4958194622
lithium(1+) ion bromide,[Li+].[Br-],1.3237062702
A mixture of RR and RS isomers of: (2-(2-methoxy-1-methyl)ethoxy)-1-methylethyl acetate; (2-(2-methoxy-2-methyl)ethoxy)-1-methylethyl acetate; (2-(2-methoxy-2-methyl)ethoxy)-2-methylethyl acetate; (2-(2-methoxy-1-methyl)ethoxy)-2-methylethyl acetate,CCC(OCCCOC)OC(C)=O,-0.0168484647
sodium dithionite,[Na+].[Na+].[O-][S](=O)[S]([O-])=O,0.0182921287
(2E)-but-2-enal,C\C=C/C=O,0.4120163187
"2,3-dimethyloxirane",CC1OC1C,0.3972950779
sodium nonyl sulfate,[Na+].CCCCCCCCCO[S]([O-])(=O)=O,-0.1361989598
Basic red 1:1,[Cl-].CCNc1cc2[o+]c3cc(NCC)c(C)cc3c(c2cc1C)c4ccccc4C(=O)OC,-1.3909846109
4-ethoxyaniline,CCOc1ccc(N)cc1,-0.8608353259999999
3-(2-chlorophenyl)-3-oxopropanenitrile,Clc1ccccc1C(=O)CC#N,-2.1751395948
2-[(2-methylprop-2-enoyl)oxy]ethyl 3-oxobutanoate,CC(=O)CC(=O)OCCOC(=O)C(C)=C,-1.0636822045
"1,3-dihydro-2-benzofuran-1-one",O=C1OCc2ccccc12,-0.8627210528
"3-(5-imino-3-methyl-4,5-dihydro-1H-pyrazol-1-yl)benzene-1-sulfonic acid",CC1=NN(C(=N)C1)c2cccc(c2)[S](O)(=O)=O,-1.1387882185
1-benzylpiperidin-4-one,O=C1CCN(CC1)Cc2ccccc2,-1.0169828584
methyl (2Z)-3-aminobut-2-enoate,COC(=O)\C=C(/C)N,-0.8059235439
silanedione magnesium sodium hydrofluoride,F.[Na].[MgH2].O=[Si]=O,-0.8566651273999999
"1-N,1-N-bis(2-hydroxyethyl)benzene-1,4-bis(aminium) sulfate",Nc1ccc(cc1)N(CCO)CCO.O[S](O)(=O)=O,-0.2184130526
ammonium hydrogen carbonate,[NH4+].[NH4+].[Zn++].[Zn++].[O-]C([O-])=O.[O-]C([O-])=O.[O-]C([O-])=O,-0.2897617622
disodium sulfanediide,[Na+].[Na+].[SH-],0.3524906593
nickel(2+) ion diacetate,[Ni++].CC([O-])=O.CC([O-])=O,0.0005376801
"1,1,1,3,3,3-hexafluoropropan-2-ol",OC(C(F)(F)F)C(F)(F)F,0.020110333
"trisodium trihydrogen 5,5',5''-(1,3,5-triazine-2,4,6-triyltriimino)tris[5-sulphonatosalicylate]",[Na+].[Na+].[Na+].OC(=O)C1=CC(CC=C1O)(Nc2nc(NC3(CC=C(O)C(=C3)C(O)=O)[S]([O-])(=O)=O)nc(NC4(CC=C(O)C(=C4)C(O)=O)[S]([O-])(=O)=O)n2)[S]([O-])(=O)=O,-0.6896460114
calcium diformate,[Ca++].[O-]C=O.[O-]C=O,0.1212110943
2-(acetyloxy)ethyl acetate,CC(=O)OCCOC(C)=O,0.068474963
"disodium 1-amino-9,10-dihydro-9,10-dioxo-4-[[4-[[2-(sulphonatooxy)ethyl]sulphonyl]phenyl]amino]anthracene-2-sulphonate",[Na+].[Na+].Nc1c2C(=O)c3ccccc3C(=O)c2c(Nc4ccc(cc4)[S](=O)(=O)CCO[S]([O-])(=O)=O)cc1[S]([O-])(=O)=O,-0.5639623965
dioxodiarsoxane,[O--].[O--].[O--].[As+3].[As+3],-1.0458962962
disodium 2-[(E)-2-(4-{4-[(E)-2-(2-sulfonatophenyl)ethenyl]phenyl}phenyl)ethenyl]benzene-1-sulfonate,[Na+].[Na+].[O-][S](=O)(=O)c1ccccc1\C=C/c2ccc(cc2)c3ccc(cc3)\C=C/c4ccccc4[S]([O-])(=O)=O,-1.504668533
"1,1,1,3,3,3-hexachloroacetone",ClC(Cl)(Cl)C(=O)C(Cl)(Cl)Cl,-1.1797979201
dibutoxyphosphinic acid,CCCCO[P](O)(=O)OCCCC,-1.0872511921
methoxyethene,COC=C,-0.5310304973
2-ethoxyethyl 2-methylprop-2-enoate,CCOCCOC(=O)C(C)=C,-0.9674738601
ethyl 2-chloro-3-oxobutanoate,CCOC(=O)C(Cl)C(C)=O,-0.9859492465
"trisodium 4-{[4-({3-[(4-amino-6-chloro-1,3,5-triazin-2-yl)amino]-4-sulfonatophenyl}amino)-6-chloro-1,3,5-triazin-2-yl]amino}-6-[(E)-2-(5-carbamoyl-1-ethyl-2-hydroxy-4-methyl-6-oxo-1,6-dihydropyridin-3-yl)diazen-1-yl]benzene-1,3-disulfonate",[Na+].[Na+].[Na+].CCN1C(=O)C(=N/Nc2cc(Nc3nc(Cl)nc(Nc4ccc(c(Nc5nc(N)nc(Cl)n5)c4)[S]([O-])(=O)=O)n3)c(cc2[S]([O-])(=O)=O)[S]([O-])(=O)=O)\C(=C(C(N)=O)C1=O)C,-0.7590012125
1-(diethylamino)propan-2-ol,CCN(CC)CC(C)O,0.1021113643
ethanethioamide,CC(N)=S,0.3363395335
1-methoxypropan-2-yl acetate,COCC(C)OC(C)=O,0.0830232388
ammonium sodium 2-[4-[[1-[[(2-methoxy-5-methyl-4-sulphonatophenyl)amino]carbonyl]-2-oxopropyl]azo]phenyl]-6-methylbenzothiazole-7-sulphonate,[NH4+].[Na+].COc1cc(c(C)cc1NC(=O)C(N=Nc2ccc(cc2)c3sc4c(ccc(C)c4[S]([O-])(=O)=O)n3)C(C)=O)[S]([O-])(=O)=O,-0.6230624777
"5,8,11,13,16,19-hexaoxatricosane",CCCCOCCOCCOCOCCOCCOCCCC,-1.3016357757
"3,6-dimethyl-1,4-dioxane-2,5-dione",CC1OC(=O)C(C)OC1=O,-0.9360258625
bromo(chloro)methane,ClCBr,-0.8891641024
2-aminobenzamide,NC(=O)c1ccccc1N,-0.9139223167
(3Z)-hex-3-en-1-ol,CC\C=C/CCO,-0.7858548038
"2-methoxy-3,4-dihydro-2H-pyran",COC1CCC=CO1,-0.853333105
"4,5-bis(hydroxymethyl)-2-methylpyridin-3-ol hydrochloride",[H+].[Cl-].Cc1ncc(CO)c(CO)c1O,-0.1117125827999999
tetrasodium tris(peroxol) dicarbonate,[Na+].[Na+].[Na+].[Na+].OO.OO.OO.[O-]C([O-])=O.[O-]C([O-])=O,-0.3094338224
"Nonylphenol, ethoxylated",CCCCCCCCCc1ccc(OCCOCCO)cc1,-0.3045102393
amino(imino)methanaminium; cyanosulfanide,NC(N)=N.SC#N,1.106488088
sodium dodecyl sulfate,[Na+].CCCCCCCCCCCCO[S]([O-])(=O)=O,-0.2838814082999999
"3-methyl-2-(2-oxo-1,3-diazinan-1-yl)butanoic acid",CC(C)C(N1CCCNC1=O)C(O)=O,-1.1028619258
1-cyanoprop-2-en-1-yl acetate,CC(=O)OC(C=C)C#N,-0.8986939452
2-methylcyclohexanol,CC1CCCCC1O,-0.864495868
1-phenoxypropan-2-ol,CC(O)COc1ccccc1,-1.0034177306
2-(1-methylcarbamimidamido)acetic acid,CN(CC(O)=O)C(N)=N,-0.9387416733
2-methylaniline,Cc1ccccc1N,-0.8539252345
3-[(2-ethylhexyl)oxy]propan-1-amine,CCCCC(CC)COCCCN,-1.096509119
3-methylbutanal,CC(C)CC=O,-0.7590833569
L-histidine monohydrochloride,[Cl-].N[C@@H](Cc1[nH]cnc1)C(O)=O.[H+],-0.1076498856
pentasodium bis(phosphonatooxy)phosphinate,[Na+].[Na+].[Na+].[Na+].[Na+].[O-][P]([O-])(=O)O[P]([O-])(=O)O[P]([O-])([O-])=O,-0.3954232123
"sodium (2R)-2-[(1R)-1,2-dihydroxyethyl]-4-hydroxy-5-oxo-2,5-dihydrofuran-3-olate",[Na+].O[C@H](C[O-])[C@H]1OC(=C(O)C1=O)O,-0.1325447734
2-methoxyethyl prop-2-enoate,COCCOC(=O)C=C,0.0439416783999999
[(4-sulfamoylphenyl)amino]azanium chloride,[H+].[Cl-].NNc1ccc(cc1)[S](N)(=O)=O,-0.1912743698
"1,1-dimethylurea",CN(C)C(N)=O,0.2124315669
potassium dicyanogolduide,[K+].[Au+].[C-]#N.[C-]#N,-0.3042087283
decasodium 2-[(E)-2-{2-sulfonato-4-[(E)-2-{3-sulfonato-4-[(E)-2-{2-sulfonato-4-[(E)-2-{4-[(E)-2-(4-sulfonatophenyl)diazen-1-yl]phenyl}diazen-1-yl]phenyl}ethenyl]phenyl}diazen-1-yl]phenyl}ethenyl]-5-[(E)-2-{4-[(E)-2-(4-sulfonatophenyl)diazen-1-yl]phenyl}diazen-1-yl]benzene-1-sulfonate 2-[(E)-2-{2-sulfonato-4-[(E)-2-{4-[(E)-2-(4-sulfonatophenyl)diazen-1-yl]phenyl}diazen-1-yl]phenyl}ethenyl]-5-[(E)-2-{4-[(E)-2-(4-sulfonatophenyl)diazen-1-yl]phenyl}diazen-1-yl]benzene-1-sulfonate,[Na+].[Na+].[Na+].[Na+].[Na+].[Na+].[Na+].[Na+].[Na+].[Na+].[O-][S](=O)(=O)c1ccc(cc1)N=Nc2ccc(cc2)N=Nc3ccc(\C=C\c4ccc(cc4[S]([O-])(=O)=O)N=Nc5ccc(cc5)N=Nc6ccc(cc6)[S]([O-])(=O)=O)c(c3)[S]([O-])(=O)=O.[O-][S](=O)(=O)c7ccc(cc7)N=Nc8ccc(cc8)N=Nc9ccc(/C=C/c%10ccc(cc%10[S]([O-])(=O)=O)N=Nc%11ccc(\C=C\c%12ccc(cc%12[S]([O-])(=O)=O)N=Nc%13ccc(cc%13)N=Nc%14ccc(cc%14)[S]([O-])(=O)=O)c(c%11)[S]([O-])(=O)=O)c(c9)[S]([O-])(=O)=O,-1.2315456851
2-hydroxy-2-phenylacetic acid,OC(C(O)=O)c1ccccc1,-0.0321269405
"5,5-dimethylimidazolidine-2,4-dione",CC1(C)NC(=O)NC1=O,0.0384738201
"tetrasodium 5-({4-[(2-hydroxyethyl)amino]-6-[(3-sulfonatophenyl)amino]-1,3,5-triazin-2-yl}amino)-2-[(E)-2-[4-({4-[(2-hydroxyethyl)amino]-6-[(3-sulfonatophenyl)amino]-1,3,5-triazin-2-yl}amino)-2-sulfonatophenyl]ethenyl]benzene-1-sulfonate",[Na+].[Na+].[Na+].[Na+].OCCNc1nc(Nc2cccc(c2)[S](O)(=O)=O)nc(Nc3ccc(\C=C\c4ccc(Nc5nc(NCCO)nc(Nc6cccc(c6)[S](O)(=O)=O)n5)cc4[S](O)(=O)=O)c(c3)[S](O)(=O)=O)n1,-0.8876904267
phenylphosphonic acid,O[P](O)(=O)c1ccccc1,-1.0269230581
"disodium 2-[(E)-2-[3-methyl-5-oxo-1-(4-sulfonatophenyl)-4,5-dihydro-1H-pyrazol-4-yl]diazen-1-yl]benzoate",[Na+].[Na+].CC1=NN(C(=O)C1N=Nc2ccccc2C([O-])=O)c3ccc(cc3)[S]([O-])(=O)=O,-1.491314993
"sodium 4-[(dichloro-1,3,5-triazin-2-yl)amino]benzene-1-sulfonate",[Na+].[O-][S](=O)(=O)c1ccc(Nc2nc(Cl)nc(Cl)n2)cc1,-1.3810309201
formaldehyde; 2-(2-hydroxyethylamino)ethanol; 2-methyloxirane; 2-nonylphenol,CCCCCCCCCc1ccccc1O.CC2CO2.OCCNCCO.C=O,-1.4630694907
"2-[7-(diethylamino)-2-oxo-2H-1-benzopyran-3-yl]-1,3-dimethyl-1H-benzimidazolium chloride",[Cl-].CCN(CC)c1ccc2C=C(C(=O)Oc2c1)c3n(C)c4ccccc4[n+]3C,-1.4505613752000002
4-methylpentan-2-one,CC(C)CC(C)=O,-0.8514795392
2-methoxyaniline,COc1ccccc1N,-0.9443240129
{2-[2-(ethenyloxy)ethoxy]ethoxy}ethene,C=COCCOCCOC=C,-1.0530702077
"trisodium 7-({4-chloro-6-[(3-sulfonatophenyl)amino]-1,3,5-triazin-2-yl}(methyl)amino)-4-hydroxy-3-[(E)-2-(2-sulfonatophenyl)diazen-1-yl]naphthalene-2-sulfonate",[Na+].[Na+].[Na+].CN(c1ccc2c(c1)C=C(/C(=N/Nc3ccccc3[S]([O-])(=O)=O)C2=O)[S]([O-])(=O)=O)c4nc(Cl)nc(Nc5cccc(c5)[S]([O-])(=O)=O)n4,-0.7520299872
copper(2+) dinitrate,[Cu++].[O-][N+]([O-])=O.[O-][N+]([O-])=O,0.8661228867
1H-pyrazole,[nH]1cccn1,1.2878896498
[2-[[4-[(2-chloro-4-nitrophenyl)azo]phenyl]ethylamino]ethyl](2-hydroxypropyl)dimethylammonium acetate,CCN(CC[N+](C)(C)CC(C)O)c1ccc(cc1)N=Nc2ccc(cc2Cl)[N+]([O-])=O.CC([O-])=O,-0.5731459846
[2-[[4-[(2-chloro-4-nitrophenyl)azo]phenyl]ethylamino]ethyl](2-hydroxypropyl)dimethylammonium chloride,[Cl-].CCN(CC[N+](C)(C)CC(C)O)c1ccc(cc1)N=Nc2ccc(cc2Cl)[N+]([O-])=O,-0.5518943050999999
copper(2+) ion bis(5-oxopyrrolidine-2-carboxylate),[Cu++].[O-]C(=O)C1CCC(=O)N1.[O-]C(=O)C2CCC(=O)N2,-0.384250204
disodium 3-[(E)-2-{3-methoxy-4-[({2-methoxy-4-[(E)-2-(3-sulfonatophenyl)diazen-1-yl]phenyl}carbamoyl)amino]phenyl}diazen-1-yl]benzene-1-sulfonate,[Na+].[Na+].COc1cc(ccc1NC(=O)Nc2ccc(cc2OC)N=Nc3cccc(c3)[S]([O-])(=O)=O)N=Nc4cccc(c4)[S]([O-])(=O)=O,-0.714875651
1-hydroxypropan-2-yl 2-methylprop-2-enoate 2-hydroxypropyl 2-methylprop-2-enoate,CC(CO)OC(=O)C(C)=C,-0.0449315461
"7-methyl-3,4-dihydro-2H-1,5-benzodioxepin-3-one",Cc1ccc2OCC(=O)COc2c1,-1.1141554489
"diethyl pyridine-2,4-dicarboxylate",CCOC(=O)c1ccnc(c1)C(=O)OCC,-1.2184148997
"potassium sodium 4,4'-bis[6-anilino-4-[bis(2-hydroxyethyl)amino]-1,3,5-triazin-2-yl]amino]stilbene-2,2'-disulphonate",[Na+].[Na+].[K].[K].OCCN(CCO)c1nc(Nc2ccccc2)nc(Nc3ccc(\C=C\c4ccc(Nc5nc(Nc6ccccc6)nc(n5)N(CCO)CCO)cc4[S]([O-])(=O)=O)c(c3)[S]([O-])(=O)=O)n1,-1.8879601369
2-hydroxy-2-methyl-1-phenylpropan-1-one,CC(C)(O)C(=O)c1ccccc1,-1.0915320913
"5-methyl-3a,4,7,7a-tetrahydro-2-benzofuran-1,3-dione",CC1=CCC2C(C1)C(=O)OC2=O,-1.0999943697
[(2-ethylhexyl)oxy]phosphonic acid,CCCCC(CC)CO.O[P](O)(O)=O,-1.2377892845
2-methylbutanal,CCC(C)C=O,-0.8212312637000001
"N,N-diisobutylformamide",CC(C)CN(CC(C)C)C=O,-1.082666634
"N-(6-amino-1,3-dimethyl-2,4-dioxo-1,2,3,4-tetrahydropyrimidin-5-yl)formamide",CN1C(=C(NC=O)C(=O)N(C)C1=O)N,-1.1831208545999998
"trisodium 5-({4-chloro-6-[ethyl(phenyl)amino]-1,3,5-triazin-2-yl}amino)-4-hydroxy-3-[(E)-2-(4-methyl-2-sulfonatophenyl)diazen-1-yl]naphthalene-2,7-disulfonate",[Na+].[Na+].[Na+].CCN(c1ccccc1)c2nc(Cl)nc(Nc3cc(cc4C=C(\C(=N/Nc5ccc(C)cc5[S]([O-])(=O)=O)C(=O)c34)[S]([O-])(=O)=O)[S]([O-])(=O)=O)n2,-0.8004343948
2-[(prop-2-en-1-yloxy)methyl]oxirane,C=CCOCC1CO1,0.049756882
"ethyl (2-methyl-1,3-dioxolan-2-yl)acetate",CCOC(=O)CC1(C)OCCO1,-0.1448235929
"3,3'-[azoxybis[(2-methoxy-p-phenylene)azo]]bis[4,5-dihydroxynaphthalene-2,7-disulphonic] acid, lithium sodium salt",[Li+].[Li+].[Na+].[Na+].COc1cc(ccc1N\N=C/2C(=O)c3c(O)cc(cc3C=C2[S]([O-])(=O)=O)[S]([O-])(=O)=O)N(O)\N=C\4C=CC(=N\N=C\5C(=O)c6c(O)cc(cc6C=C5[S]([O-])(=O)=O)[S]([O-])(=O)=O)\C(=C4)OC,-0.9094796777
potassium vanadium trioxide,[K+].[O-][V](=O)=O,-0.0465738269
lanthanum trinitrate,[La],0.9471841061
"dilithium(1+) ion sodium hydrogen 4-amino-6-(2-{5-[(5-chloro-2,6-difluoropyrimidin-4-yl)amino]-2-sulfonatophenyl}diazen-1-yl)-5-hydroxy-3-(2-{4-[2-(sulfonatooxy)ethanesulfonyl]phenyl}diazen-1-yl)naphthalene-2,7-disulfonate",[Li+].[Li+].[Na+].[Na+].Nc1c(N=Nc2ccc(cc2)[S](=O)(=O)CCO[S]([O-])(=O)=O)c(cc3C=C(\C(=N/Nc4cc(Nc5nc(F)nc(F)c5Cl)ccc4[S]([O-])(=O)=O)C(=O)c13)[S]([O-])(=O)=O)[S]([O-])(=O)=O,-0.9138010179
"5-[[4-chloro-6-[(3-sulphophenyl)amino]-1,3,5-triazin-2-yl]amino]-4-hydroxy-3-[[4-[[2-(sulphooxy)ethyl]sulphonyl]phenyl]azo]naphthalene-2,7-disulphonic acid, sodium salt",[Na+].[Na+].[Na+].[Na+].[O-][S](=O)(=O)OCC[S](=O)(=O)c1ccc(N\N=C/2C(=O)c3c(Nc4nc(Cl)nc(Nc5cccc(c5)[S]([O-])(=O)=O)n4)cc(cc3C=C2[S]([O-])(=O)=O)[S]([O-])(=O)=O)cc1,-0.903187957
"1,4-dimethyl butanedioate",COC(=O)CCC(=O)OC,-0.0752231636
"1,2-bis(oxiran-2-ylmethyl) cyclohex-4-ene-1,2-dicarboxylate",O=C(OCC1CO1)C2CC=CCC2C(=O)OCC3CO3,-1.3401088604
calcium bis((2Z)-4-oxopent-2-en-2-olate),[Ca++].CC(=O)[CH-]C(C)=O.CC(=O)[CH-]C(C)=O,-1.2665270421
disodium 6-amino-5-[(E)-2-[4-(2-bromoprop-2-enamido)-2-sulfonatophenyl]diazen-1-yl]-4-hydroxynaphthalene-2-sulfonate,[Na+].[Na+].[O-][S](=O)(=O)C1=CC(=O)C2=C(NNc3ccc(NC(=O)C(Br)=C)cc3[S]([O-])(=O)=O)C(=N)C=CC2=C1,-1.6785332004
"3,4-dihydroxybenzonitrile",Oc1ccc(cc1O)C#N,-1.0235160951
2-[2-(2-{2-[(2-methylprop-2-enoyl)oxy]ethoxy}ethoxy)ethoxy]ethyl 2-methylprop-2-enoate,CC(=C)C(=O)OCCOCCOCCOCCOC(=O)C(C)=C,-1.4186392601
4-aminobenzenesulfonic acid,Nc1ccc(cc1)[S](O)(=O)=O,-1.1412730253
methoxycyclopentane,COC1CCCC1,-0.9037886388
"3,4-diaminobenzenesulfonic acid",Nc1ccc(cc1N)[S](O)(=O)=O,-1.1812163945
(E)-N-(pyridin-2-ylmethylidene)hydroxylamine,O=N\C=C/1NC=CC=C1,-1.0004518583
"3a,4,7,7a-tetrahydro-1H-isoindole-1,3(2H)-dione",O=C1NC(=O)C2CC=CCC12,-1.0930914177
"3,5,5-trimethylcyclohex-2-en-1-one",CC1=CC(=O)CC(C)(C)C1,-1.0613582209
3-methylaniline,Cc1cccc(N)c1,-0.9508352475
"1-{bis[4-(diethylamino)phenyl]methyl}naphthalene-2,7-disulfonic acid",CCN(CC)c1ccc(cc1)C(c2ccc(cc2)N(CC)CC)c3c4cc(ccc4ccc3[S](O)(=O)=O)[S](O)(=O)=O,-0.6984761494
2-methylbutan-2-ol,CCC(C)(C)O,0.1266596907
rhodium(3+) ion trinitrate,[Rh+3].[O-][N+]([O-])=O.[O-][N+]([O-])=O.[O-][N+]([O-])=O,0.6074112618999999
thiourea,NC(N)=S,0.188516266
"5-(benzoylamino)-3-[[5-[[(5-chloro-2,6-difluoro-4-pyrimidinyl)amino]methyl]-1-sulpho-2-naphthyl]azo]-4-hydroxynaphthalene-2,7-disulphonic acid, lithium sodium salt",[Li+].[Na+].[Na+].[O-][S](=O)(=O)c1cc(NC(=O)c2ccccc2)c3C(=O)C(=N/Nc4ccc5c(CNc6nc(F)nc(F)c6Cl)cccc5c4[S]([O-])(=O)=O)/C(=Cc3c1)[S]([O-])(=O)=O,-0.8900865081
"benzene-1,3-diol",Oc1cccc(O)c1,1.0034883278
1-hexadecylpyridinium chloride,[Cl-].CCCCCCCCCCCCCCCC[n+]1ccccc1,-0.4861495515
"2-[(allyloxy)methyl]-2-methylbutane-1,1-diol",CCC(CO)(CO)COCC=C,-0.1997551773
2-hydroxy-4-(methylsulfanyl)butanenitrile,CSCCC(O)C#N,-0.0765411499
3-methylbut-2-enal,CC(C)=CC=O,0.1165037469
lithium(1+) ion hydroxide,[Li+].[OH-],0.6621234357
"3,5-dimethylhex-1-yn-3-ol",CC(C)CC(C)(O)C#C,-1.0365979243
cyclohex-3-ene-1-carbaldehyde,O=CC1CCC=CC1,-0.9775501681
"1,3-diazinane-2,4,6-trione",O=C1CC(=O)NC(=O)N1,-1.0486616392
6-chlorohexan-1-ol,OCCCCCCCl,-1.0824421952
suberonitrile,N#CCCCCCCC#N,-1.0810922867
2-(4-methyl-5-oxo-4-propan-2-yl-1H-imidazol-2-yl)pyridine-3-carboxylic acid,CC(C)C1(C)N=C(NC1=O)c2ncccc2C(O)=O,-1.3640293861
pent-2-enenitrile,CC\C=C/C#N,-0.8598992117
"2-phenyl-4,5-dihydro-1H-imidazole",C1C[NH+]=C(N1)c2ccccc2,-1.1265180752
"tricyclo[2.2.2.2~1,4~]decane-2,5-diyldimethanol",OCC1CCC2C3CC(CC3CO)C12,-1.2515054899
hydroxy(phenyl)acetic acid,O[C@@H](C(O)=O)c1ccccc1,-0.1416667622
Alpha-Methylglucoside,COC1OC(CO)C(O)C(O)C1O,0.7452125491
"but-2-yne-1,4-diol; 2-(chloromethyl)oxirane",OCC#CCO.ClCC1CO1,0.7778715429
3-methyloxolane,CC1CCOC1,0.0901312493
chromium(3+) ion trinitrate,[Cr+3].[O-][N+]([O-])=O.[O-][N+]([O-])=O.[O-][N+]([O-])=O,0.6456305496
1-ethenylsulfanylethanol,CC(O)SC=C,0.0054931194
"disodium 4-amino-3-[(E)-2-{4-[(E)-2-(2,4-diaminophenyl)diazen-1-yl]phenyl}diazen-1-yl]-5-hydroxy-6-[(E)-2-phenyldiazen-1-yl]naphthalene-2,7-disulfonate",[Na+].[Na+].Nc1ccc(N=Nc2ccc(cc2)N=Nc3c(N)c4C(=O)C(=N/Nc5ccccc5)/C(=Cc4cc3[S]([O-])(=O)=O)[S]([O-])(=O)=O)c(N)c1,-0.827397585
disodium 2-[carboxymethyl-[2-[carboxymethyl-(2-oxido-2-oxoethyl)amino]ethyl]amino]acetate,[Na+].[Na+].OC(=O)CN(CCN(CC(O)=O)CC([O-])=O)CC([O-])=O,-0.5054187441
nitromethane,C[N+]([O-])=O,0.2335017655
samarium(3+) ion trinitrate,[Sm+3].[O-][N+]([O-])=O.[O-][N+]([O-])=O.[O-][N+]([O-])=O,0.4860173873
3-methylpent-1-yn-3-ol,CCC(C)(O)C#C,0.0167319924
hexanedihydrazide,NNC(=O)CCCCC(=O)NN,-0.2324579511
"1,2-dimethoxyethane",COCCOC,1.0451691789
"1,4-dioxane",C1COCCO1,1.0549945152
1-methylpyrrolidin-2-one,CN1CCCC1=O,1.0037817508
1-methylurea,CNC(N)=O,1.1302814392
"2,2'-sulfanediyldiethanol",OCCSCCO,0.9129678895
"2,6-dimethylmorpholine",O.OC(=O)CC(O)(CC(O)=O)C(O)=O,0.6774954055
2-(2-hydroxyethoxy)ethan-1-ol,OCCOCCO,0.9741986662
2-(2-oxoimidazolidin-1-yl)ethyl methacrylate,CC(=C)C(=O)OCCN1CCNC1=O,0.7028481462999999
2-(dimethylamino)-2-methylpropan-1-ol,[H+].[Cl-].CN(C)C(C)(C)CO,0.8134589559000001
2-[(2-aminoethyl)amino]ethan-1-ol,NCCNCCO,0.9823282162
2-[(2-hydroxyethyl)(methyl)amino]ethan-1-ol,CN(CCO)CCO,0.9238549272
2-[2-(2-hydroxyethoxy)ethoxy]ethan-1-ol,OCCOCCOCCO,0.8234052513
2-[bis(2-hydroxyethyl)amino]ethan-1-ol,OCCN(CCO)CCO,0.8262602859999999
2-chloroethan-1-ol,OCCCl,1.0941285967
2-cyanoacetic acid,OC(=O)CC#N,1.0702644103
2-hydroxyethyl prop-2-enoate,OCCOC(=O)C=C,0.9351079333
2-hydroxypropanenitrile,CC(O)C#N,1.1482586908
2-methylbut-3-yn-2-ol,CC(C)(O)C#C,1.0751110617
2-methylpropan-2-amine,CC(C)(C)N,1.1358509819
2-methylpropan-2-ol,CC(C)(C)O,1.1300470117
2-methylpyridine,Cc1ccccn1,1.0309150604
2-sulfanylethan-1-ol,OCCS,1.1071488253
3-(dimethylamino)propan-1-ol,CN(C)CCCO,0.9864676175
"3-methyl-1-vinyl-2,3-dihydro-1H-imidazol-1-ium methyl sulfate",CO[S]([O-])(=O)=O.C[n+]1ccn(C=C)c1,0.6570840829
4-hydroxybenzenesulfonic acid,Oc1ccc(cc1)[S](O)(=O)=O,0.7590091939
4-hydroxybutyl prop-2-enoate,OCCCCOC(=O)C=C,0.8411251015000001