Name,SMILES,Solubility
timobesone  acetate,CSC(=O)C1(OC(C)=O)C(C)CC2C3CCC4=CC(=O)C=CC4(C)C3(F)C(O)CC12C,-6.22
4-benzoylaminophenyl  acetate;  acetic acid 4-benzoylaminophenyl ester,CC(=O)OC1=CC=C(NC(=O)C2=CC=CC=C2)C=C1,-4.14
"1,2,4-trimethyl-1,2,3,4-tetrahydro-2,4a,9-triazaanthracen-10-one; trimethylpyridoquinazolone",CC1CN(C)C(C)C2=NC3=C(C=CC=C3)C(=O)N12,-2.09
1-amino-8-naphthalenesulfonic  acid,NC1=CC=CC2=C1C(=CC=C2)[S](O)(=O)=O,-3.07
"proxicromil analog iii;  cyclohexano(6,7)chromone-2-carboxylic acid",OC(=O)C1=CC(=O)C2=C(O1)C=C3CCCCC3=C2,-1.05
3-benzoyloxyphenyl  isothiocyanate;  benzoic acid 3-isothiocyanatophenyl ester,O=C(OC1=CC=CC(=C1)N=C=S)C2=CC=CC=C2,-4.85
7-methoxycarbonyltheophylline,COC(=O)[N]1C=NC2=C1C(=O)N(C)C(=O)N2C,-1.24
ibuprofen ester iic; n-methyl-n-[2-(2'-(4''-isobutylphenyl)propanoyloxy)acetyl]glycineamide,CC(C)CC1=CC=C(C=C1)C(C)C(=O)OCC(=O)N(C)CC(N)=O,-3.41
7-theophyllinylmethyl  acetate;  7-(acetoxymethyl)theophylline,CN1C(=O)N(C)C2=C([N](COC(C)=O)C=N2)C1=O,-1.83
tropicamide,CCN(CC1=CC=NC=C1)C(=O)C(CO)C2=CC=CC=C2,-1.7
3-isothiocyanatophenyl  nicotinate,O=C(OC1=CC=CC(=C1)N=C=S)C2=CC=CN=C2,-4.3
6-(s-octanoyloxymethyl)mercaptopurine;  6-(octanoyloxymethylthio)purine,CCCCCCCC(=O)OCSC1=NC=NC2=C1N=C[NH]2,-4.62
"1-methyl-2-propyl-1,2,3,4-tetrahydro-2,4a,9-triazaanthracen-10-one",CCCN1CCN2C(=O)C3=C(C=CC=C3)N=C2C1C,-2.31
"(-)-(r)-1,2-bis(2,6-dioxopiperazin-4-yl)propane;  nsc-129943;  icrf 159;  razoxane (+/-)",CC(CN1CC(=O)NC(=O)C1)N2CC(=O)NC(=O)C2,-1.27
7-butyryltheophylline;  7-butanoyltheophylline,CCCC(=O)[N]1C=NC2=C1C(=O)N(C)C(=O)N2C,-1.53
prednisone-21-acetate,CC(=O)OCC(=O)C1(O)CCC2C3CCC4=CC(=O)C=CC4(C)C3C(=O)CC12C,-4.24
"3-(1-aziridinyl)-4,6-dinitro-(n-propyl)benzamide",CCCNC(=O)C1=CC(=C(C=C1[N+]([O-])=O)[N+]([O-])=O)N2CC2,-3.89
equilenin,CC12CCC3=C(C=CC4=C3C=CC(=C4)O)C1CCC2=O,-4.96
cephradine,CC1=C(N2C(SC1)C(NC(=O)C(N)C3=CCC=CC3)C2=O)C(O)=O,-1.22
7-(ethoxycarboxymethyl)theophylline;  7-(ethoxycarbonyloxymethyl)theophylline,CCOC(=O)OC[N]1C=NC2=C1C(=O)N(C)C(=O)N2C,-1.86
"3-(1-aziridinyl)-4,6-dinitro-(n-isopropyl)benzamide",CC(C)NC(=O)C1=CC(=C(C=C1[N+]([O-])=O)[N+]([O-])=O)N2CC2,-3.5
"2,2',3,5-tetrachlorobiphenyl",ClC1=CC(=C(Cl)C(=C1)Cl)C2=CC=CC=C2Cl,-6.23
7-(ethoxycarbonyl)theophylline,CCOC(=O)[N]1C=NC2=C1C(=O)N(C)C(=O)N2C,-1.65
"2-ethyl-1,4-dimethyl-1,2,3,4-tetrahydro-2,4a,9-triazaanthracen-10-one",CCN1CC(C)N2C(=O)C3=C(C=CC=C3)N=C2C1C,-2.46
4-(3-phenylureido)phenyl  acetate;  acetic acid 4-(3-phenylureido)phenyl ester,CC(=O)OC1=CC=C(NC(=O)NC2=CC=CC=C2)C=C1,-4.44
7-(propionyloxymethyl)theophylline;  7-(propanoyloxymethyl)theophylline,CCC(=O)OC[N]1C=NC2=C1C(=O)N(C)C(=O)N2C,-2.3
nifurtoinol;  3-(hydroxymethyl)nitrofurantoin,OCN1C(=O)CN(/N=C/C2=CC=C(O2)[N+]([O-])=O)C1=O,-2.91
2-(3-acetylphenylamino)benzoic acid,CC(=O)C1=CC=CC(=C1)NC2=CC=CC=C2C(O)=O,-4.86
"2,2',3,6'-tetrachlorobiphenyl",ClC1=CC=CC(=C1Cl)C2=C(Cl)C=CC=C2Cl,-6.3
cgp 65015;  (+)-3-hydroxy-1-(2-hydroxyethyl)-2-(alpha-hydroxybenzyl)-1h-pyridin-4-one,OCCN1C=CC(=O)C(=C1C(O)C2=CC=CC=C2)O,-2.82
"3,3',4,4'-tetrachlorodiphenyl  ether",ClC1=C(Cl)C=C(OC2=CC=C(Cl)C(=C2)Cl)C=C1,-6.98
etodolac,CCC1=CC=CC2=C1[NH]C3=C2CCOC3(CC)CC(O)=O,-3.31
"2-aminosulfonyl-5-methylsulfonamido-1,3,4-thiadiazole",C[S](=O)(=O)NC1=NN=C(S1)[S](N)(=O)=O,-1.68
"sertraline;  (1s,4s)-4-(3,4-dichlorophenyl)-1,2,3,4-tetrahydro-n-methyl-1-naphthalenamine",CNC1CCC(C2=CC(=C(Cl)C=C2)Cl)C3=C1C=CC=C3,-5.23
2-[(4-phenylazophenyl)hydrazono]malononitrile,N#CC(=NNC1=CC=C(C=C1)N=NC2=CC=CC=C2)C#N,-4.92
"3,4,4',5-tetrachlorodiphenyl  ether",ClC1=CC=C(OC2=CC(=C(Cl)C(=C2)Cl)Cl)C=C1,-7.35
"3,3',4,5'-tetrachlorodiphenyl  ether",ClC1=CC(=CC(=C1)OC2=CC=C(Cl)C(=C2)Cl)Cl,-7.32
7-pentanoyltheophylline,CCCCC(=O)[N]1C=NC2=C1C(=O)N(C)C(=O)N2C,-2.12
l-dopa benzyl ester,NC(CC1=CC(=C(O)C=C1)O)C(=O)OCC2=CC=CC=C2,-1.81
"2,3',4,4'-tetrachlorodiphenyl  ether",ClC1=CC=C(OC2=CC(=C(Cl)C=C2)Cl)C(=C1)Cl,-7.0
"2,4,4',5-tetrachlorodiphenyl  ether",ClC1=CC=C(OC2=CC(=C(Cl)C=C2Cl)Cl)C=C1,-7.04
"1-chloro-2,4-dinitronaphthalene",[O-][N+](=O)C1=C(Cl)C2=C(C=CC=C2)C(=C1)[N+]([O-])=O,-5.4
"3-(aziridin-1-yl)-4,6-dinitro-n-(isobutyl)benzamide",CC(C)CNC(=O)C1=CC(=C(C=C1[N+]([O-])=O)[N+]([O-])=O)N2CC2,-3.85
"2,3',4,5'-tetrachlorodiphenyl  ether",ClC1=CC=C(OC2=CC(=CC(=C2)Cl)Cl)C(=C1)Cl,-7.14
"2,3',4',5-tetrachlorodiphenyl  ether",ClC1=CC=C(Cl)C(=C1)OC2=CC=C(Cl)C(=C2)Cl,-7.07
"2,3,4,4'-tetrachlorodiphenyl  ether",ClC1=CC=C(OC2=CC=C(Cl)C(=C2Cl)Cl)C=C1,-7.01
5'-propanoylidoxuridine; 5'-propanoyl-5-iodo-2'-deoxyuridine; 5'-propanoyl-idu,CCC(=O)OCC1OC(CC1O)N2C=C(I)C(=O)NC2=O,-2.46
"2,3,4',5-tetrachlorodiphenyl  ether",ClC1=CC=C(OC2=CC(=CC(=C2Cl)Cl)Cl)C=C1,-7.14
"2,3,3',4'-tetrachlorodiphenyl  ether",ClC1=C(Cl)C=C(OC2=CC=CC(=C2Cl)Cl)C=C1,-6.9
7-(pivaloyloxymethyl)theophylline (viii),CN1C(=O)N(C)C2=C([N](COC(=O)C(C)(C)C)C=N2)C1=O,-2.17
"2,3',4,5-tetrachlorodiphenyl  ether",ClC1=CC=CC(=C1)OC2=CC(=C(Cl)C=C2Cl)Cl,-7.27
"2,4,4',6-tetrachlorodiphenyl  ether",ClC1=CC=C(OC2=C(Cl)C=C(Cl)C=C2Cl)C=C1,-6.83
n-(3'-nitrophenyl)anthranilic  acid;  3'-nitrofenamic acid,OC(=O)C1=CC=CC=C1NC2=CC(=CC=C2)[N+]([O-])=O,-6.43
"2,3,3',4-tetrachlorodiphenyl  ether",ClC1=CC=CC(=C1)OC2=CC=C(Cl)C(=C2Cl)Cl,-7.09
"2,2',4,5'-tetrachlorodiphenyl  ether",ClC1=CC=C(OC2=C(Cl)C=CC(=C2)Cl)C(=C1)Cl,-6.77
7-(propoxycarbonyl)theophylline,CCCOC(=O)[N]1C=NC2=C1C(=O)N(C)C(=O)N2C,-1.45
"2,3',4',6-tetrachlorodiphenyl  ether",ClC1=C(Cl)C=C(OC2=C(Cl)C=CC=C2Cl)C=C1,-6.56
"2,2',3,4'-tetrachlorodiphenyl  ether",ClC1=CC(=C(OC2=CC=CC(=C2Cl)Cl)C=C1)Cl,-6.65
"1,4-dimethyl-2-propyl-1,2,3,4-tetrahydro-2,4a,9-triazaanthracen-10-one",CCCN1CC(C)N2C(=O)C3=C(C=CC=C3)N=C2C1C,-2.24
"2,3,4',6-tetrachlorodiphenyl  ether",ClC1=CC=C(OC2=C(Cl)C=CC(=C2Cl)Cl)C=C1,-6.64
"3-(aziridin-1-yl)-4,6-dinitro-n-(tert-butyl)benzamide",CC(C)(C)NC(=O)C1=CC(=C(C=C1[N+]([O-])=O)[N+]([O-])=O)N2CC2,-3.17
7-(butyryloxymethyl)theophylline;  7-(butanoyloxymethyl)theophylline,CCCC(=O)OC[N]1C=NC2=C1C(=O)N(C)C(=O)N2C,-1.86
"2,2',4,5-tetrachlorodiphenyl  ether",ClC1=C(OC2=CC(=C(Cl)C=C2Cl)Cl)C=CC=C1,-7.0
"3,5-diiodotyrosine",NC(CC1=CC(=C(O)C(=C1)I)I)C(O)=O,-2.86
"2,2',3,4-tetrachlorodiphenyl  ether",ClC1=CC=C(OC2=C(Cl)C=CC=C2)C(=C1Cl)Cl,-6.74
1-(2-methylmorpholin-4-yl)sulfonyl-3-(6-bicyclo[2.2.1]-2-heptenylmethyl)urea,CC1CN(CCO1)[S](=O)(=O)NC(=O)NCC2CC3CC2C=C3,-2.26
"2,3,4,5-tetrachlorodiphenyl  ether",ClC1=C(Cl)C(=C(Cl)C(=C1)OC2=CC=CC=C2)Cl,-7.52
"3-(aziridin-1-yl)-4,6-dinitro-n,n-(diethyl)benzamide",CCN(CC)C(=O)C1=CC(=C(C=C1[N+]([O-])=O)[N+]([O-])=O)N2CC2,-2.59
(+)-pancratistatin,OC1C(O)C(O)C2C(NC(=O)C3=C(O)C4=C(OCO4)C=C23)C1O,-3.8
"2,3,4,6-tetrachlorodiphenyl  ether",ClC1=C(Cl)C(=C(OC2=CC=CC=C2)C(=C1)Cl)Cl,-7.06
flumequine,CC1CCC2=CC(=CC3=C2N1C=C(C(O)=O)C3=O)F,-3.74
"2,3,5,6-tetrachlorodiphenyl  ether",ClC1=C(Cl)C(=C(Cl)C(=C1)Cl)OC2=CC=CC=C2,-7.02
7-(butoxycarbonyl)theophylline,CCCCOC(=O)[N]1C=NC2=C1C(=O)N(C)C(=O)N2C,-1.93
7-(pentanoyloxymethyl)theophylline,CCCCC(=O)OC[N]1C=NC2=C1C(=O)N(C)C(=O)N2C,-2.37
"5-creatinylamido-2-sulfamoyl-1,3,4-thiadiazole",CN(CC(=O)NC1=NN=C(S1)[S](N)(=O)=O)C(N)=N,-1.14
chlorzoxazone-n-methyl hemisuccinate,OC(=O)CCC(=O)OCN1C(=O)OC2=CC=C(Cl)C=C12,-3.41
cinchoninone,C=CC1CN2CCC1CC2C(=O)C3=CC=NC4=C3C=CC=C4,-3.19
"1-[3-(aziridin-1-yl)-4,6-dinitrobenzoyl]piperidine",[O-][N+](=O)C1=C(C=C(C(=O)N2CCCCC2)C(=C1)[N+]([O-])=O)N3CC3,-3.17
"8,9,10,11-tetrahydro-7-methyl-1,2-benzanthracene; 8,9,10,11-tetrahydro-7-methyl-benz[a]anthracene",CC1=C2C=CC3=C(C=CC=C3)C2=CC4=C1CCCC4,-6.75
7-(hexanoyloxymethyl)theophylline,CCCCCC(=O)OC[N]1C=NC2=C1C(=O)N(C)C(=O)N2C,-2.64
6-acetyloxymethylthio-9-acetyloxymethylpurine,CC(=O)OCSC1=NC=NC2=C1N=C[N]2COC(C)=O,-2.54
"n-[3-(aziridin-1-yl)-4,6-dinitrobenzoyl]morpholine",[O-][N+](=O)C1=C(C=C(C(=O)N2CCOCC2)C(=C1)[N+]([O-])=O)N3CC3,-2.89
"2-sulfamoyl-4-methyl-5-mesylimido-1,3,4-thiadiazoline;  nr.29",CN1N=C(SC1=N[S](C)(=O)=O)[S](N)(=O)=O,-2.05
"2,2',3,3',5-pentachlorobiphenyl",ClC1=CC(=C(Cl)C(=C1)C2=C(Cl)C(=CC=C2)Cl)Cl,-6.96
"1,3-dipropyl-8-cyclopentylxanthine",CCCN1C(=O)N(CCC)C2=C([NH]C(=N2)C3CCCC3)C1=O,-4.96
"tolcapone;  3,4-dihydroxy-4'-methyl-5-nitrobenzophenone",CC1=CC=C(C=C1)C(=O)C2=CC(=C(O)C(=C2)O)[N+]([O-])=O,-4.17
"sulfatroxazole;  4,5-dimethyl-3-sulfaisoxazole",CC1=C(C)C(=NO1)N[S](=O)(=O)C2=CC=C(N)C=C2,-2.19
proxicromil analog ii;  deshydroxyproxicromil,CCCC1=C2CCCCC2=CC3=C1OC(=CC3=O)C(O)=O,-1.9
3-(hydroxymethyl)phenytoin,OCN1C(=O)NC(C1=O)(C2=CC=CC=C2)C3=CC=CC=C3,-3.3
7-(hexyloxycarbonyl)theophylline,CCCCCCOC(=O)[N]1C=NC2=C1C(=O)N(C)C(=O)N2C,-3.0
"3,3',4,4',5-pentachlorodiphenyl  ether",ClC1=CC=C(OC2=CC(=C(Cl)C(=C2)Cl)Cl)C=C1Cl,-8.25
norethindrone benzoate,CC12CCC3C(CCC4=CC(=O)CCC34)C1CCC2(OC(=O)C5=CC=CC=C5)C#C,-7.75
"2,3',4,4',5-pentachlorodiphenyl  ether",ClC1=CC=C(OC2=C(Cl)C=C(Cl)C(=C2)Cl)C=C1Cl,-7.83
methylprednisolone-21-hemisuccinate,CC1CC2C3CCC(O)(C(=O)COC(=O)CCC(O)=O)C3(C)CC(O)C2C4(C)C=CC(=O)C=C14,-4.2
"2',3,4,4',5-pentachlorodiphenyl  ether",ClC1=CC=C(OC2=CC(=C(Cl)C(=C2)Cl)Cl)C(=C1)Cl,-7.89
1-benzoylallopurinol,O=C1NC=NC2=C1C=N[N]2C(=O)C3=CC=CC=C3,-4.23
"2,4'-ddt",ClC1=CC=C(C=C1)C(C2=C(Cl)C=CC=C2)C(Cl)(Cl)Cl,-7.13
"2,3',4,5,5'-pentachlorodiphenyl  ether",ClC1=CC(=CC(=C1)Cl)OC2=C(Cl)C=C(Cl)C(=C2)Cl,-8.06
"2,3,3',4',5-pentachlorodiphenyl  ether",ClC1=CC(=C(Cl)C(=C1)Cl)OC2=CC=C(Cl)C(=C2)Cl,-7.83
"2,2',4,4',5-pentachlorodiphenyl  ether",ClC1=CC=C(OC2=C(Cl)C=C(Cl)C(=C2)Cl)C(=C1)Cl,-7.61
"2,3,3',4,5'-pentachlorodiphenyl  ether",ClC1=CC(=CC(=C1)Cl)OC2=C(Cl)C(=C(Cl)C=C2)Cl,-7.86
"2,3,4,4',5-pentachlorodiphenyl  ether",ClC1=CC=C(OC2=C(Cl)C(=C(Cl)C(=C2)Cl)Cl)C=C1,-8.06
"2,3',4,4',6-pentachlorodiphenyl  ether",ClC1=CC(=C(OC2=CC=C(Cl)C(=C2)Cl)C(=C1)Cl)Cl,-7.62
4-sulfapyrimidin-2-one,NC1=CC=C(C=C1)[S](=O)(=O)NC2=NC(=O)NC=C2,-3.55
"2,2',3,4,4'-pentachlorodiphenyl  ether",ClC1=CC=C(OC2=C(Cl)C(=C(Cl)C=C2)Cl)C(=C1)Cl,-7.44
"2,2',4,5,5'-pentachlorodiphenyl  ether",ClC1=CC=C(Cl)C(=C1)OC2=C(Cl)C=C(Cl)C(=C2)Cl,-7.56
"2,2',3,4',5-pentachlorodiphenyl  ether",ClC1=CC=C(OC2=C(Cl)C(=CC(=C2)Cl)Cl)C(=C1)Cl,-7.64
"2,3,3',4',6-pentachlorodiphenyl  ether",ClC1=CC=C(OC2=C(Cl)C(=CC=C2Cl)Cl)C=C1Cl,-7.35
"2,3,4,4',6-pentachlorodiphenyl  ether",ClC1=CC=C(OC2=C(Cl)C(=C(Cl)C=C2Cl)Cl)C=C1,-7.77
theophyllin-7-ylmethyl octanoate;  7-(octanoyloxymethyl)theophylline,CCCCCCCC(=O)OC[N]1C=NC2=C1C(=O)N(C)C(=O)N2C,-3.45
"2,2',4,4',6-pentachlorodiphenyl  ether",ClC1=CC=C(OC2=C(Cl)C=C(Cl)C=C2Cl)C(=C1)Cl,-7.33
"2,2',3',4,5-pentachlorodiphenyl  ether",ClC1=C(Cl)C(=CC=C1)OC2=C(Cl)C=C(Cl)C(=C2)Cl,-7.48
"2,2',3,4,5'-pentachlorodiphenyl  ether",ClC1=CC=C(Cl)C(=C1)OC2=C(Cl)C(=C(Cl)C=C2)Cl,-7.7
"amicarbalide;  n,n'-di(3-amidinophenyl)urea",NC(=N)C1=CC(=CC=C1)NC(=O)NC2=CC(=CC=C2)C(N)=N,-1.77
"2,2',3,3',4-pentachlorodiphenyl  ether",ClC1=C(Cl)C(=CC=C1)OC2=C(Cl)C(=C(Cl)C=C2)Cl,-7.38
"2,3,4',5,6-pentachlorodiphenyl  ether",ClC1=CC=C(OC2=C(Cl)C(=CC(=C2Cl)Cl)Cl)C=C1,-7.76
tetcyclacis,ClC1=CC=C(C=C1)N2N=NC3C4CC(C5N=NC45)C23,-4.87
"2,2',3,4',6-pentachlorodiphenyl  ether",ClC1=CC=C(OC2=C(Cl)C(=CC=C2Cl)Cl)C(=C1)Cl,-7.24
"2,2',4,5,6'-pentachlorodiphenyl  ether",ClC1=CC=CC(=C1OC2=C(Cl)C=C(Cl)C(=C2)Cl)Cl,-7.12
"2,2',3,4,6'-pentachlorodiphenyl  ether",ClC1=C(Cl)C(=C(OC2=C(Cl)C=CC=C2Cl)C=C1)Cl,-7.23
naproxen 2-(2-aminoacetoxy)ethyl ester,COC1=CC=C2C=C(C=CC2=C1)C(C)C(=O)OCCOC(=O)CN,-1.98
"2-sulfamoyl-5-(n,n-dimethylsulfamoylamido)-1,3,4-thiadiazole",CN(C)[S](=O)(=O)NC1=NN=C(S1)[S](N)(=O)=O,-2.68
"2,3,4,5,6-pentachlorodiphenyl  ether",ClC1=C(Cl)C(=C(OC2=CC=CC=C2)C(=C1Cl)Cl)Cl,-7.94
"s6,9-bis(propanoyloxymethyl)-6-mercaptopurine",CCC(=O)OCSC1=NC=NC2=C1N=C[N]2COC(=O)CC,-2.78
"diclofop;  (rs)-2-[4-(2,4-dichlorophenoxy)phenoxy]propanoic acid",CC(OC1=CC=C(OC2=C(Cl)C=C(Cl)C=C2)C=C1)C(O)=O,-5.04
carprofen;  6-chloro-alpha-methyl-9h-carbazole-2-acetic acid,CC(C(O)=O)C1=CC2=C(C=C1)C3=C([NH]2)C=CC(=C3)Cl,-4.7
naproxen 1-(2-aminoacetoxy)ethyl ester,COC1=CC=C2C=C(C=CC2=C1)C(C)C(=O)OC(C)OC(=O)CN,-2.44
"danthron;  1,8-dihydroxyanthraquinone",OC1=CC=CC2=C1C(=O)C3=C(C=CC=C3O)C2=O,-5.19
1-methyl-4-sulfapyrimidin-2-one,CN1C=CC(=NC1=O)N[S](=O)(=O)C2=CC=C(N)C=C2,-2.36
acetic acid 4-(4-acetylaminobenzoylamino)phenyl ester,CC(=O)NC1=CC=C(C=C1)C(=O)NC2=CC=C(OC(C)=O)C=C2,-4.41
8-phenyltheophylline,CN1C(=O)N(C)C2=C([NH]C(=N2)C3=CC=CC=C3)C1=O,-5.0
"1,3-dipropyl-8-dicyclopropylmethylxanthine",CCCN1C(=O)N(CCC)C2=C([NH]C(=N2)C(C3CC3)C4CC4)C1=O,-4.59
proxicromil,CCCC1=C2OC(=CC(=O)C2=C(O)C3=C1CCCC3)C(O)=O,-2.68
ampicillin,CC1(C)SC2C(NC(=O)C(N)C3=CC=CC=C3)C(=O)N2C1C(O)=O,-1.99
dexclamol,CC(C)C1(O)CCN2CC3C4=C(CCC5=C3C(=CC=C5)C2C1)C=CC=C4,-3.81
pimaricin;  natamycin,CC1C\C=C\C=C\C=C\C=C\C(CC2OC(O)(CC(O)CC3OC3/C=C/C(=O)O1)CC(O)C2C([O-])=O)OC4OC(C)C(O)C([NH3+])C4O,-2.21
norfloxacin,CCN1C=C(C(O)=O)C(=O)C2=C1C=C(N3CCNCC3)C(=C2)F,-2.76
"s6,9-bis(butanoyloxymethyl)-6-mercaptopurine; 9-(butanoyloxymethyl)-6-(butanoyloxymethylthio)purine",CCCC(=O)OCSC1=NC=NC2=C1N=C[N]2COC(=O)CCC,-3.71
cephalexin,CC1=C(N2C(SC1)C(NC(=O)C(N)C3=CC=CC=C3)C2=O)C(O)=O,-1.58
n4-acetylsulfadiazine,CC(=O)NC1=CC=C(C=C1)[S](=O)(=O)NC2=NC=CC=N2,-3.59
"1,3-dipropyl-8-(3-oxocyclopentyl)xanthine",CCCN1C(=O)N(CCC)C2=C([NH]C(=N2)C3CCC(=O)C3)C1=O,-3.16
"2,3,3',4,4',5'-hexachlorodiphenyl  ether",ClC1=C(Cl)C(=C(OC2=CC(=C(Cl)C(=C2)Cl)Cl)C=C1)Cl,-8.49
imazaquine,CC(C)C1(C)N=C(NC1=O)C2=NC3=C(C=CC=C3)C=C2C(O)=O,-3.72
1-acetoxymethyl-3-benzoyl-5-fluorouracil,CC(=O)OCN1C=C(F)C(=O)N(C1=O)C(=O)C2=CC=CC=C2,-3.34
o-[(4-morpholinomethyl)benzoyl]metronidazole,CC1=NC=C([N]1CCOC(=O)C2=CC=C(CN3CCOCC3)C=C2)[N+]([O-])=O,-2.89
"n1-(3,4-dichlorophenyl)sulfanilamide;  3,4-dichloro-1-sulfabenzene",NC1=CC=C(C=C1)[S](=O)(=O)NC2=CC=C(Cl)C(=C2)Cl,-4.94
5-amino-2-methoxy-sulfabenzene,COC1=C(N[S](=O)(=O)C2=CC=C(N)C=C2)C=C(N)C=C1,-5.08
enoxacin,CCN1C=C(C(O)=O)C(=O)C2=C1N=C(N3CCNCC3)C(=C2)F,-2.92
"5-[(n,n-dimethylaminosulfonyl)imido]-4-methyl-2-aminosulfonyl-1,3,4-thiadiazoline",CN(C)[S](=O)(=O)N=C1SC(=NN1C)[S](N)(=O)=O,-2.7
"2,2',3,4',5,5'-hexachlorodiphenyl  ether",ClC1=CC(=C(Cl)C(=C1)Cl)OC2=CC(=C(Cl)C=C2Cl)Cl,-8.41
"2,2',3,3',4,5'-hexachlorodiphenyl  ether",ClC1=CC(=C(Cl)C(=C1)OC2=C(Cl)C(=C(Cl)C=C2)Cl)Cl,-8.55
"2,3,3',4',5,6-hexachlorodiphenyl  ether",ClC1=CC=C(OC2=C(Cl)C(=CC(=C2Cl)Cl)Cl)C=C1Cl,-8.3
"2,2',3,4,4',6-hexachlorodiphenyl  ether",ClC1=CC(=C(OC2=C(Cl)C(=C(Cl)C=C2Cl)Cl)C=C1)Cl,-8.47
n-(5-ethoxycarbonylpyridin-2-yl)benzenesulfonamide,CCOC(=O)C1=CN=C(N[S](=O)(=O)C2=CC=CC=C2)C=C1,-4.24
n-benzoyl-o-acetyl-l-tyrosinamide,CC(=O)OC1=CC=C(CC(NC(=O)C2=CC=CC=C2)C(N)=O)C=C1,-3.89
"2,2',3,4',5',6-hexachlorodiphenyl  ether",ClC1=CC=C(Cl)C(=C1Cl)OC2=C(Cl)C=C(Cl)C(=C2)Cl,-7.88
"3-[2-(n-methylguanidino)-acetylamino]-n-(5-sulfamoyl-[1,3,4]thiadiazol-2-yl)propionamide",CN(CC(=O)NCCC(=O)NC1=NN=C(S1)[S](N)(=O)=O)C(N)=N,-1.13
8-styryltheophylline,CN1C(=O)N(C)C2=C([NH]C(=N2)\C=C\C3=CC=CC=C3)C1=O,-6.66
"2,2',3,4',5,6-hexachlorodiphenyl  ether",ClC1=CC(=C(OC2=C(Cl)C(=CC(=C2Cl)Cl)Cl)C=C1)Cl,-8.42
"2,2',3,3',4,6'-hexachlorodiphenyl  ether",ClC1=C(Cl)C(=C(OC2=C(Cl)C=CC(=C2Cl)Cl)C=C1)Cl,-7.96
iopanoic acid,CCC(CC1=C(I)C(=C(I)C=C1I)N)C(O)=O,-4.58
methazolamide analog a14,CN1N=C(SC1=N[S](=O)(=O)C(F)(F)F)[S](N)(=O)=O,-1.16
8-phenylcaffeine,CN1C(=O)N(C)C2=C([N](C)C(=N2)C3=CC=CC=C3)C1=O,-3.31
nitrofuranylamide derivative (lee 952);  n-methyl-n-[4-(2-morpholin-4-ylethoxy)benzyl]-5-nitro-2-furamide,CN(CC1=CC=C(OCCN2CCOCC2)C=C1)C(=O)C3=CC=C(O3)[N+]([O-])=O,-2.29
n1-(1-allyl-2-oxopyrimidin-4-yl)sulfanilamide;  1-allyl-4-sulfapyrimidin-2-one,NC1=CC=C(C=C1)[S](=O)(=O)NC2=NC(=O)N(CC=C)C=C2,-3.11
2-(n4-acetyl)sulfathiazole,CC(=O)NC1=CC=C(C=C1)[S](=O)(=O)NC2=NC=CS2,-3.43
n1-(1-isopropyl-2-oxopyrimidin-4-yl)sulfanilamide;  1-isopropyl-4-sulfapyrimidin-2-one,CC(C)N1C=CC(=NC1=O)N[S](=O)(=O)C2=CC=C(N)C=C2,-3.17
"entacapone analog (2a);  (e)-2-cyano-n,n-diethyl-3-[3-n-ethylcarbamoyloxy-4-hydroxy-5-nitrophenyl]propenamide",CCNC(=O)OC1=C(O)C(=CC(=C1)\C=C(C#N)/C(=O)N(CC)CC)[N+]([O-])=O,-3.18
"s6,9-bis(pentanoyloxymethyl)-6-mercaptopurine; 9-(pentanoyloxymethyl)-6-(pentanoyloxymethylthio)purine",CCCCC(=O)OCSC1=NC=NC2=C1N=C[N]2COC(=O)CCCC,-4.33
4-nitro-n-(4-methoxyphenyl)benzenesulfonamide;  1-(4-nitrophenylsulfonamido)-4-methoxybenzene,COC1=CC=C(N[S](=O)(=O)C2=CC=C(C=C2)[N+]([O-])=O)C=C1,-4.64
amoxicillin,CC1(C)SC2C(NC(=O)C(N)C3=CC=C(O)C=C3)C(=O)N2C1C(O)=O,-2.17
"1,3-dipropyl-8-(3-noradamantyl)xanthine",CCCN1C(=O)N(CCC)C2=C([NH]C(=N2)[C]34CC5[CH2]C(C[CH]3C5)C4)C1=O,-5.85
"4-(4-bromo-2-fluorophenylamino)-5-fluoro-1-methyl-6-oxo-1,6-dihydropyridine-3-carboxamide",CN1C=C(C(N)=O)C(=C(F)C1=O)NC2=C(F)C=C(Br)C=C2,-4.14
"naproxen,  derivat 3b",COC1=CC=C2C=C(C=CC2=C1)C(C)C(=O)OCCOC(=O)C(N)CC(C)C,-3.82
n1-(1-butyl-2-oxopyrimidin-4-yl)sulfanilamide;  1-butyl-4-sulfapyrimidin-2-one,CCCCN1C=CC(=NC1=O)N[S](=O)(=O)C2=CC=C(N)C=C2,-3.09
"naproxen,  derivat 3c",CCC(C)C(N)C(=O)OCCOC(=O)C(C)C1=CC2=CC=C(OC)C=C2C=C1,-3.82
"1-(2,6-difluorophenyl)-1h,3h-thiazolo[3,4-a]benzimidazole;  nsc 625487",FC1=C(C2SCC3=NC4=C(C=CC=C4)[N]23)C(=CC=C1)F,-3.76
"theophyllin-7-ylmethyl 3-(n,n-diethylcarbamoyl)propionate; n,n-diethylsuccinamic acid theophyllin-7-ylmethyl ester",CCN(CC)C(=O)CCC(=O)OC[N]1C=NC2=C1C(=O)N(C)C(=O)N2C,-1.14
n1-(1-isobutyl-2-oxopyrimidin-4-yl)sulfanilamide;  1-isobutyl-4-sulfapyrimidin-2-one,CC(C)CN1C=CC(=NC1=O)N[S](=O)(=O)C2=CC=C(N)C=C2,-3.11
3-benzoyl-1-butanoyloxymethyl-5-fluorouracil,CCCC(=O)OCN1C=C(F)C(=O)N(C1=O)C(=O)C2=CC=CC=C2,-3.73
amifloxacin,CNN1C=C(C(O)=O)C(=O)C2=C1C=C(N3CCN(C)CC3)C(=C2)F,-3.73
"6-(2,2-dimethylpropanoyloxy)-2-sulfamoylbenzothiazole",CC(C)(C)C(=O)OC1=CC2=C(C=C1)N=C(S2)[S](N)(=O)=O,-3.73
n1-(1-sec-butyl-2-oxopyrimidin-4-yl)sulfanilamide;  1-sec-butyl-4-sulfapyrimidin-2-one,CCC(C)N1C=CC(=NC1=O)N[S](=O)(=O)C2=CC=C(N)C=C2,-2.76
"naproxen,  ester 3a",COC1=CC2=CC=C(C=C2C=C1)C(C)C(=O)OCCOC(=O)CN3CCOCC3,-4.3
"2,3,3',4,4',5,6-heptachlorobiphenyl",ClC1=CC=C(C=C1Cl)C2=C(Cl)C(=C(Cl)C(=C2Cl)Cl)Cl,-8.9
"2,3,3',4',5,5',6-heptachlorobiphenyl",ClC1=CC(=C(Cl)C(=C1Cl)C2=CC(=C(Cl)C(=C2)Cl)Cl)Cl,-9.1
mitomycin c n-propoxycarbonyl derivative,CCCOC(=O)N1C2CN3C4=C(C(COC(N)=O)C3(OC)C12)C(=O)C(=C(C)C4=O)N,-3.48
8-styrylcaffeine,CN1C(=O)N(C)C2=C([N](C)C(=N2)\C=C\C3=CC=CC=C3)C1=O,-5.55
naproxen-derivat 3f,CCC(C)C(N)C(=O)OCCCCOC(=O)C(C)C1=CC2=CC=C(OC)C=C2C=C1,-4.52
brucine * 4 h2o,COC1=CC2=C(C=C1OC)C34CCN5CC6=CCOC7CC(=O)N2C3C7C6CC45,-2.79
"2,3,3',4,4',5,5'-heptachlorodiphenyl  ether",ClC1=CC(=CC(=C1Cl)Cl)OC2=C(Cl)C(=C(Cl)C(=C2)Cl)Cl,-9.54
"3,4'-ace-1,2-benzanthracene",C1CC2=CC3=CC4=C(C=CC=C4)C=C3C5=C2C1=CC=C5,-2.97
sulfaproxyline,CC(C)OC1=CC=C(C=C1)C(=O)N[S](=O)(=O)C2=CC=C(N)C=C2,-4.3
2-carboxy-7-methylthioxanthone; 7-methylthioxanthone-2-carboxylic; 7-methylsulfanyl-9-oxo-9h-xanthene-2-carboxylic acid acid,CSC1=CC=C2OC3=C(C=C(C=C3)C(O)=O)C(=O)C2=C1,-5.32
lomefloxacin,CCN1C=C(C(O)=O)C(=O)C2=C1C(=C(N3CCNC(C)C3)C(=C2)F)F,-2.33
enrofloxacin,CCN1CCN(CC1)C2=CC3=C(C=C2F)C(=O)C(=CN3C4CC4)C(O)=O,-3.18
"oxaprozin;  4,5-diphenyl-2-oxazolepropanoic acid",OC(=O)CCC1=NC(=C(O1)C2=CC=CC=C2)C3=CC=CC=C3,-2.24
"acetrizoic  acid;  3-acetylamino-2,4,6-triiodobenzoic  acid",CC(=O)NC1=C(I)C=C(I)C(=C1I)C(O)=O,-2.64
"2,2',3,4,4',5,6-heptachlorodiphenyl  ether",ClC1=CC=C(OC2=C(Cl)C(=C(Cl)C(=C2Cl)Cl)Cl)C(=C1)Cl,-9.64
bromerguride,CCN(CC)C(=O)NC1CN(C)C2CC3=C(Br)[NH]C4=C3C(=CC=C4)C2=C1,-4.38
"3,3-diphenylphthalide",O=C1OC(C2=CC=CC=C2)(C3=CC=CC=C3)C4=C1C=CC=C4,-3.85
danofloxacin,CN1CC2CC1CN2C3=CC4=C(C=C3F)C(=O)C(=CN4C5CC5)C(O)=O,-2.9
"3',4',5,7-tetrahydroxyflavone; luteolin",OC1=CC2=C(C(=C1)O)C(=O)C=C(O2)C3=CC(=C(O)C=C3)O,-3.61
azapropazone; apazone,CCCC1=C(O)N2N(C1=O)C3=CC(=CC=C3N=C2N(C)C)C,-3.63
"10-butyl-1,2-benzanthracene",CCCCC1=CC2=C(C=C1)C=C3C=CC4=C(C=CC=C4)C3=C2,-7.52
cefroxadine,COC1=C(N2C(SC1)C(NC(=O)C(N)C3=CCC=CC3)C2=O)C(O)=O,-1.89
"1-(methylaminoacetylamino)-3-chloro-4,6-disulfamoylbenzene; n-(5-chloro-2,4-disulfamoylphenyl)-2-(methylamino)acetamide",CNCC(=O)NC1=C(C=C(C(=C1)Cl)[S](N)(=O)=O)[S](N)(=O)=O,-1.27
"9-chloro-7-methyl-1,2-benzanthracene;  9-chloro-7-methylbenz[a]anthracene",CC1=C2C=CC3=C(C=CC=C3)C2=CC4=CC=C(Cl)C=C14,-7.44