Name,SMILES,Solubility
"1,3-dibromo-2-(2,3-dibromo-2-methylpropoxy)-5-{2-[3,5-dibromo-4-(2,3-dibromo-2-methylpropoxy)phenyl]propan-2-yl}benzene",CC(Br)(CBr)COc1c(Br)cc(cc1Br)C(C)(C)c2cc(Br)c(OCC(C)(Br)CBr)c(Br)c2,-7.6864910333
"2,4-di-tert-butylphenyl 3,5-di-tert-butyl-4-hydroxybenzoate",CC(C)(C)c1ccc(OC(=O)c2cc(c(O)c(c2)C(C)(C)C)C(C)(C)C)c(c1)C(C)(C)C,-7.3410901182
"N-{2-[(E)-2-(2-bromo-4,6-dinitrophenyl)diazen-1-yl]-5-(diethylamino)phenyl}acetamide",CCN(CC)c1ccc(N=Nc2c(Br)cc(cc2[N+]([O-])=O)[N+]([O-])=O)c(NC(C)=O)c1,-7.379569278300001
"2,4-dichlorobenzoyl 2,4-dichlorobenzene-1-carboperoxoate",Clc1ccc(c(Cl)c1)C(=O)OOC(=O)c2ccc(Cl)cc2Cl,-8.2787650296
"2-ethyl-N,N-bis(2-ethylhexyl)hexan-1-amine",CCCCC(CC)CN(CC(CC)CCCC)CC(CC)CCCC,-8.2475792783
"2,9-Bis(2-phenylethyl)anthra(2,1,9-def:6,5,10-d'e'f')diisoquinoline-1,3,8,10(2H,9H)-tetrone",O=C1N(CCc2ccccc2)C(=O)c3ccc4c5ccc6C(=O)N(CCc7ccccc7)C(=O)c8ccc(c9ccc1c3c49)c5c68,-8.4761487948
2-heptadecyl-1H-imidazole,CCCCCCCCCCCCCCCCCc1[nH]ccn1,-7.214642713
"sodium; 4-(4-aminophenyl)diazenyl-3-methylaniline; methanolate; methyl 2,3,4,5-tetrachloro-6-cyanobenzoate",[Na+].C[O-].COC(=O)c1c(Cl)c(Cl)c(Cl)c(Cl)c1C#N.Cc2cc(N)ccc2N=Nc3ccc(N)cc3,-7.532414871799999
"propane-2,2-diylbis(4,1-phenyleneoxypropane-3,1-diyl) bis(2-methylacrylate)",CC(=C)C(=O)OCCCOc1ccc(cc1)C(C)(C)c2ccc(OCCCOC(=O)C(C)=C)cc2,-7.4564753884
"2,2'-[[4-[(3,5-dinitro-2-thienyl)azo]phenyl]imino]bisethyl diacetate",CC(=O)OCCN(CCOC(C)=O)c1ccc(cc1)N=Nc2sc(cc2[N+]([O-])=O)[N+]([O-])=O,-7.547293505
"4,5,6,7-tetrachloro-2-[2-(4,5,6,7-tetrachloro-1,3-dioxo-2,3-dihydro-1H-inden-2-yl)quinolin-8-yl]-2,3-dihydro-1H-isoindole-1,3-dione",Clc1c(Cl)c(Cl)c2C(=O)C(c3ccc4cccc(N5C(=O)c6c(Cl)c(Cl)c(Cl)c(Cl)c6C5=O)c4n3)C(=O)c2c1Cl,-7.7273960926
"2-[[4-(diethylamino)-2-methylphenyl]azo]-5-nitrobenzene-1,3-dicarbonitrile",CCN(CC)c1ccc(N=Nc2c(cc(cc2C#N)[N+]([O-])=O)C#N)c(C)c1,-7.472819969600001
"2,3-dihydroxypropyl tetradecanoate",CCCCCCCCCCCCCC(=O)OCC(O)CO,-7.397875398099999
"3-(5-chloro-1,3-benzoxazol-2-yl)-7-(diethylamino)-2H-chromen-2-one",CCN(CC)c1ccc2C=C(C(=O)Oc2c1)c3oc4ccc(Cl)cc4n3,-7.4876332175
copper(2+) ion 1-[N-(2-oxidophenyl)carboximidoyl]naphthalen-2-olate,[Cu++].[O-]c1ccccc1N=Cc2c([O-])ccc3ccccc23,-7.432469538099999
dioxoplumbane,O=[Pb]=O,-7.325679100599999
"1,2,4-trinonyl benzene-1,2,4-tricarboxylate",CCCCCCCCCOC(=O)c1ccc(C(=O)OCCCCCCCCC)c(c1)C(=O)OCCCCCCCCC,-6.757182205
"triethoxy(2,4,4-trimethylpentyl)silane",CCO[Si](CC(C)CC(C)(C)C)(OCC)OCC,-6.4416841407000005
"(4E)-4-[(5-chloro-2-methylphenyl)hydrazinylidene]-N-[4-[[(4Z)-4-[(5-chloro-2-methylphenyl)hydrazinylidene]-3-oxonaphthalene-2-carbonyl]amino]-2,5-dimethylphenyl]-3-oxonaphthalene-2-carboxamide",Cc1ccc(Cl)cc1N\N=C2\C(=O)C(=Cc3ccccc23)C(=O)Nc4cc(C)c(NC(=O)C5=Cc6ccccc6C(=N/Nc7cc(Cl)ccc7C)/C5=O)cc4C,-7.678196263899999
"1-({4-[(9,10-dioxo-9,10-dihydroanthracen-1-yl)amino]-6-phenyl-1,3,5-triazin-2-yl}amino)-9,10-dihydroanthracene-9,10-dione",O=C1c2ccccc2C(=O)c3c(Nc4nc(Nc5cccc6C(=O)c7ccccc7C(=O)c56)nc(n4)c8ccccc8)cccc13,-7.77786597
"2-cyano-N-methyl-2-[(1E)-3-(2,4,6-trioxo-1,3-diazinan-5-ylidene)-2,3-dihydro-1H-isoindol-1-ylidene]acetamide",CNC(=O)/C(C#N)=C/1NC(c2ccccc12)=C3C(=O)NC(=O)NC3=O,-7.5280099033
"3-[(E)-2-(4-chloro-2-nitrophenyl)diazen-1-yl]-2-methyl-1H,9H-pyrazolo[3,2-b]quinazolin-9-one",CC\1=NN2C(=O)c3ccccc3N=C2C1=N/Nc4ccc(Cl)cc4[N+]([O-])=O,-7.5829344883
"5-[3-(2,4,6-trioxo-1,3-diazinan-5-ylidene)-2,3-dihydro-1H-isoindol-1-ylidene]-1,3-diazinane-2,4,6-trione",O=C1NC(=O)C(C(=O)N1)=C2NC(c3ccccc23)=C4C(=O)NC(=O)NC4=O,-7.5649937324
O~15~-acetylretinoic acid,CC(=O)OC/C=C(C)/C=C/C=C(C)/C=C/C1=C(C)CCCC1(C)C,-7.5165300857
O~15~-propionylretinoic acid,CCC(=O)OC/C=C(C)/C=C/C=C(C)/C=C/C1=C(C)CCCC1(C)C,-7.534689739199999
"manganese, 3-hydroxy-4-[(1-sulfo-2-naphthalenyl)azo]-2-naphthalenecarboxylic acid complex",[H+].[Mn++].[O-]C(=O)c1cc2ccccc2c(N=Nc3ccc4ccccc4c3[S]([O-])(=O)=O)c1[O-],-7.6770043618
"1,3-bis(tetradecanoyloxy)propan-2-yl tetradecanoate",CCCCCCCCCCCCCC(=O)OCC(COC(=O)CCCCCCCCCCCCC)OC(=O)CCCCCCCCCCCCC,-8.6470570009
oxoberyllium,[Be]=O,-7.255116256
1-(4-Pentylcyclohexyl)-4-propylbenzene,CCCCCC1CCC(CC1)c2ccc(CCC)cc2,-6.7725704235
"2-(2H-1,2,3-benzotriazol-2-yl)-4,6-bis(2-methylbutan-2-yl)phenol",CCC(C)(C)c1cc(n2nc3ccccc3n2)c(O)c(c1)C(C)(C)CC,-8.545917916
2-[(E)-2-(3-chloro-4-{3-chloro-4-[(E)-2-[1-(hydrazinecarbonyl)-2-oxopropyl]diazen-1-yl]phenyl}phenyl)diazen-1-yl]-3-oxobutanehydrazide,CC(=O)C(N=Nc1ccc(c(Cl)c1)c2ccc(N=NC(C(C)=O)C(=O)NN)c(Cl)c2)C(=O)NN,-8.7052973925
Vat Orange 11,O=C1c2ccccc2C(=O)c3c4[nH]c5c(ccc6C(=O)c7c8[nH]c9c(ccc%10C(=O)c%11ccccc%11C(=O)c9%10)c8ccc7C(=O)c56)c4ccc13,-8.8106451034
Aluminum cobalt oxide,[O--].[O--].[O--].[O--].[O--].[Al+3].[Al+3].[Co++].[Co++],-8.4010988426
bismuth vanadium tetraoxide,[O--].[O--].[O--].[O--].[V].[Bi+3],-8.5104350823
diiron(3+) ion trioxidandiide,O.[O--].[O--].[O--].[Fe+3].[Fe+3],-8.2496923157
dodecyl 2-methylprop-2-enoate,CCCCCCCCCCCCOC(=O)C(C)=C,-8.4055410062
niobium,[Nb],-7.968043762200001
octadecyl 2-methylprop-2-enoate,CCCCCCCCCCCCCCCCCCOC(=O)C(C)=C,-8.5296561698
"1,8-dihydroxy-4-nitro-5-(phenylamino)-9,10-dihydroanthracene-9,10-dione",Oc1ccc(Nc2ccccc2)c3C(=O)c4c(c(O)ccc4[N+]([O-])=O)C(=O)c13,-8.6461429905
sodium 4-hydroxybenzene-1-sulfonate,[Na+].Oc1ccc(cc1)[S]([O-])(=O)=O,-8.3631893131
hexadecyl hexadecanoate,CCCCCCCCCCCCCCCCOC(=O)CCCCCCCCCCCCCCC,-8.754650095399999
"4-tert-butyl-2-(5-tert-butyl-2-oxo-2,3-dihydro-1-benzofuran-3-yl)phenyl 3,5-di-tert-butyl-4-hydroxybenzoate",CC(C)(C)c1ccc2OC(=O)C(c2c1)c3cc(ccc3OC(=O)c4cc(c(O)c(c4)C(C)(C)C)C(C)(C)C)C(C)(C)C,-8.848512616699999
"2-ethylhexanoic acid, zirconium salt",[Zr++].CCCCC(CC)C([O-])=O.CCCCC(CC)C([O-])=O,-8.7020121255
"3-{2-[(3Z)-5-cyano-1,4-dimethyl-2,6-dioxo-1,2,3,6-tetrahydropyridin-3-ylidene]hydrazin-1-yl}phenyl benzenesulfonate",CN1C(=O)C(=N/Nc2cccc(O[S](=O)(=O)c3ccccc3)c2)\C(=C(C#N)C1=O)C,-8.782716219400001
beryllium,[Be],-7.2558511787
"3-[(2-ethylhexanoyl)oxy]-2,2-bis({[(2-ethylhexanoyl)oxy]methyl})propyl 2-ethylhexanoate",CCCCC(CC)C(=O)OCC(COC(=O)C(CC)CCCC)(COC(=O)C(CC)CCCC)COC(=O)C(CC)CCCC,-9.2047594175
gold,[Au],-8.8172722155
bis(9E)-octadec-9-en-1-yl phosphonate,CCCCCCCC/C=C/CCCCCCCCO[P+](=O)OCCCCCCCC\C=C\CCCCCCCC,-9.5344195865
cerium dioxide,O=[Ce]=O,-9.1459110865
"1,2,3,4,5-pentabromo-6-pentabromophenoxybenzene",Brc1c(Br)c(Br)c(Oc2c(Br)c(Br)c(Br)c(Br)c2Br)c(Br)c1Br,-9.9818960396
"1,1'-[iminobis(ethyleneiminoethylene)]bis[3-(octadecenyl)pyrrolidine-2,5-dione]",CCCCCCCCCCCCCCCCCCC1CC(=O)N(CCNCCNCCNCCN2C(=O)CC(CCCCCCCCCCCCCCCCCC)C2=O)C1=O,-10.2347171749
1-(chloromethyl)-4-[4-(chloromethyl)phenyl]benzene,ClCc1ccc(cc1)c2ccc(CCl)cc2,-10.098913562
3-pentyl nitrate,CCC(CC)O[N+]([O-])=O,-2.4522
5-bromo-3-hydroxybenzaldehyde,Oc1cc(Br)cc(C=O)c1,-3.2502
meperidine,[H+].[Cl-].CCOC(=O)C1(CCN(C)CC1)c2ccccc2,-1.6368
hydroxyphenamate,CCC(O)(COC(N)=O)c1ccccc1,-0.9227
lactic acid,CC(O)C(O)=O,1.0454
estradiol,C[C@]12CC[C@H]3[C@@H](CCc4cc(O)ccc34)[C@@H]1CC[C@@H]2O,-4.8789
"2,6-dichlorobenzoic acid",OC(=O)c1c(Cl)cccc1Cl,-1.1309
"2,3,6-trichlorobenzoic acid",OC(=O)c1c(Cl)ccc(Cl)c1Cl,-1.4666
thalidomide,O=C1CCC(N2C(=O)c3ccccc3C2=O)C(=O)N1,-2.6758
reserpine,CO[C@H]1[C@@H](C[C@@H]2CN3CCc4c([nH]c5cc(OC)ccc45)[C@H]3C[C@@H]2[C@@H]1C(=O)OC)OC(=O)c6cc(OC)c(OC)c(OC)c6,-3.9208
niclosamide,Oc1ccc(Cl)cc1C(=O)Nc2ccc(cc2Cl)[N+]([O-])=O,-5.3106
5-hydroxytryptamine,NCCc1c[nH]c2ccc(O)cc12,-0.945
"2,4,5-trichlorobenzoic acid",OC(=O)c1cc(Cl)c(Cl)cc1Cl,-2.4446
"2,4-dichlorobenzoic acid",OC(=O)c1ccc(Cl)cc1Cl,-2.6003
5-bromouracil,BrC1=CNC(=O)NC1=O,-2.3698
adrenaline tartrate (1:1),CNC[C@H](O)c1ccc(O)c(O)c1.O[C@H]([C@@H](O)C(O)=O)C(O)=O,0.0
epinephrine,CNC[C@H](O)c1ccc(O)c(O)c1,-3.0077
propylthiouracil,CCCC1=CC(=O)NC(=S)N1,-2.1504
mechlorethamine,CN(CCCl)CCCl,-1.1141
norethindrone acetate,CC(=O)O[C@]1(CC[C@H]2[C@@H]3CCC4=CC(=O)CC[C@@H]4[C@H]3CC[C@]12C)C#C,-4.8041
spironolactone,CC(=O)S[C@@H]1CC2=CC(=O)CC[C@]2(C)[C@H]3CC[C@@]4(C)[C@@H](CC[C@@]45CCC(=O)O5)[C@H]13,-4.2773
thiotepa,S=[P](N1CC1)(N2CC2)N3CC3,0.0018
trichlorfon,CO[P](=O)(OC)C(O)C(Cl)(Cl)Cl,-0.3315
cysteine,NC(CS)C(O)=O,0.3597
"o,p'-ddd",ClC(Cl)C(c1ccc(Cl)cc1)c2ccccc2Cl,-6.5052
nicotine,CN1CCC[C@H]1c2cccnc2,0.7898
"uridine, 2'-deoxy-5-iodo-",OCC1OC(CC1O)N2C=C(I)C(=O)NC2=O,-2.2481
4-dimethylamino-3'-methylazobenzene,CN(C)c1ccc(cc1)N=Nc2cccc(C)c2,-5.7769
isoflurophate,CC(C)O[P](F)(=O)OC(C)C,-1.0777
metacil,CC1=CC(=O)NC(=S)N1,-2.4259
4-aminobutyric acid,NCCCC(O)=O,1.1006
cantharidin,C[C@@]12[C@H]3CC[C@H](O3)[C@]1(C)C(=O)OC2=O,-3.8156
adenosine triphosphate,Nc1ncnc2n(cnc12)C3OC(CO[P](O)(=O)O[P](O)(=O)O[P](O)(O)=O)C(O)C3O,0.2948
coumaphos,CCO[P](=S)(OCC)Oc1ccc2C(=C(Cl)C(=O)Oc2c1)C,-5.3835
lysine,NCCCCC(N)C(O)=O,0.8351
glycerophosphoric acid,OCC(O)CO[P](O)(O)=O,0.7643
3-isothiocyanato-1-propene,C=CCN=C=S,-1.6953
"1,1-dimethylhydrazine",CN(C)N,1.2211
demerol,CCOC(=O)C1(CCN(C)CC1)c2ccccc2,-1.8861
fructose,OC[C@@H](O)[C@@H](O)[C@H](O)C(=O)CO,0.6353
sucrose,OC[C@H]1O[C@H](O[C@]2(CO)O[C@H](CO)[C@@H](O)[C@@H]2O)[C@H](O)[C@@H](O)[C@@H]1O,0.7878
"1,2-propanediol",CC(O)CO,1.1186
ethinyl estradiol,C[C@]12CC[C@H]3[C@@H](CCc4cc(O)ccc34)[C@@H]1CC[C@@]2(O)C#C,-4.4192
sulfanilyl guanadine,NC(N)=N[S](=O)(=O)c1ccc(N)cc1,-1.9885
chlordane,ClC1CC2C(C1Cl)C3(Cl)C(=C(Cl)C2(Cl)C3(Cl)Cl)Cl,-6.8644
testosterone propionate,CCC(=O)O[C@H]1CC[C@H]2[C@@H]3CCC4=CC(=O)CC[C@]4(C)[C@H]3CC[C@]12C,-5.3669
a-estradiol,C[C@]12CC[C@H]3[C@@H](CCc4cc(O)ccc34)[C@@H]1CC[C@H]2O,-4.8441
librium,CN=C1CN(O)C(=C2C=C(Cl)C=CC2=N1)c3ccccc3,-2.1757
prochloroperazine,CN1CCN(CCCN2c3ccccc3Sc4ccc(Cl)cc24)CC1,-4.3979
nikethamide,CCN(CC)C(=O)c1cccnc1,0.7490000000000001
2-(1h)-quinolinone,O=C1Nc2ccccc2C=C1,-2.1394
sulfaquinoxaline,Nc1ccc(cc1)[S](=O)(=O)Nc2cnc3ccccc3n2,-4.6026
thiamine,[Cl-].Cc1ncc(C[n+]2csc(CCO)c2C)c(N)n1,0.2207
"1,2-propanediol-3-(2-tolyloxy)",Cc1ccccc1OCC(O)CO,-1.1887
3-methyl-4-chlorophenol,Cc1cc(O)ccc1Cl,-1.5704
dl-methionine,CSCCC(N)C(O)=O,-0.6593
"1-propanol, 2,3-dimercapto-",OCC(S)CS,-0.1547
a-glucose-1-phosphate,OCC1OC(O[P](O)(O)=O)C(O)C(O)C1O,0.5848
n-nitrosomorpholine,O=NN1CCOCC1,0.9351
dopa,NC(Cc1ccc(O)c(O)c1)C(O)=O,-1.5959
6-aminohexanoic acid,NCCCCCC(O)=O,0.5854
acetamide,CC(N)=O,1.5808
tetracycline,CN(C)[C@H]1[C@@H]2C[C@H]3C(=C(O)c4c(O)cccc4[C@@]3(C)O)C(=O)[C@]2(O)C(=O)\C(=C(N)/O)C1=O,-3.284
dieldrin,ClC1=C(Cl)C2(Cl)C3C4CC(C5OC45)C3C1(Cl)C2(Cl)Cl,-6.2908
methotrimeprazine,COc1ccc2Sc3ccccc3N(C[C@H](C)CN(C)C)c2c1,-4.2155
mefenamic acid,Cc1cccc(Nc2ccccc2C(O)=O)c1C,-4.0815
methylene blue,[Cl-].CN(C)c1ccc2nc3ccc(cc3[s+]c2c1)N(C)C,-0.8655
chlormerodrin,[Cl-].COC(C[Hg+])CNC(N)=O,-1.5235
"alanine, 2-methyl-",CC(C)(N)C(O)=O,0.2453
cevadine,C/C=C(/C)C(=O)O[C@H]1CC[C@@]2(C)[C@@H]3CC[C@H]4[C@]5(O)C[C@H](O)[C@@]6(O)[C@@H](CN7C[C@@H](C)CC[C@H]7[C@@]6(C)O)[C@]5(O)C[C@]24O[C@]13O,-3.0163
"fluoroacetic acid, sodium salt",[Na+].[O-]C(=O)CF,1.0452
arecoline,COC(=O)C1=CCCN(C)C1,0.8091
n-methyl o-(3-isopropylphenyl)carbamate,CNC(=O)Oc1cccc(c1)C(C)C,-3.3567
morphine sulfate,C[NH+]1CC[C@@]23C4Oc5c(O)ccc(C[C@H]1[C@H]2C=C[C@H]4O)c35.C[NH+]6CC[C@@]78C9Oc%10c(O)ccc(C[C@H]6[C@H]7C=C[C@H]9O)c8%10.[O-][S]([O-])(=O)=O,-1.0157
mebutamate,CCC(C)C(C)(COC(N)=O)COC(N)=O,-2.366
colchicine,COC1=CC=C2C(=CC1=O)[C@H](CCc3cc(OC)c(OC)c(OC)c23)NC(C)=O,-0.9482
pyridoxal hydrochloride,[H+].[Cl-].Cc1ncc(CO)c(C=O)c1O,0.3901
"3,5-diiodotyrosine",N[C@@H](Cc1cc(I)c(O)c(I)c1)C(O)=O,-2.8583
o-phenanthroline,c1cnc2c(c1)ccc3cccnc23,-1.826
pyridoxal,Cc1ncc(CO)c(C=O)c1O,0.4758
nihydrazone,CC(=O)N/N=C/c1oc(cc1)[N+]([O-])=O,-2.5958
acetone,CC(C)=O,1.236
dimethyl sulfoxide,C[S](C)=O,1.1072
norethindrone,C[C@]12CC[C@H]3[C@@H](CCC4=CC(=O)CC[C@H]34)[C@@H]1CC[C@@]2(O)C#C,-4.6271
hypoxanthine,O=C1N=CNc2nc[nH]c12,-2.2888
maltose,OCC1OC(OC2C(O)C(O)C(O)OC2CO)C(O)C(O)C1O,0.3577
hexachlorophene,Oc1c(Cl)cc(Cl)c(Cl)c1Cc2c(O)c(Cl)cc(Cl)c2Cl,-3.4634
"1-fluoro-2,4-dinitrobenzene",[O-][N+](=O)c1ccc(F)c(c1)[N+]([O-])=O,-2.6677
deferoxamine,CC(=O)N(O)CCCCCNC(=O)CCC(=O)N(O)CCCCCNC(=O)CCC(=O)N(O)CCCCCN,-1.6695
histidine,NC(Cc1[nH]cnc1)C(O)=O,-0.5314
cytosine,NC1=CC=NC(=O)N1,-1.1426
sodium lactate,[Na+].CC(O)C([O-])=O,0.9505
methoxychlor,COc1ccc(cc1)C(c2ccc(OC)cc2)C(Cl)(Cl)Cl,-6.5386
alizarine,Oc1ccc2C(=O)c3ccccc3C(=O)c2c1O,-2.7785
adenine,Nc1ncnc2nc[nH]c12,-2.1179
bendroflumethiazide,N[S](=O)(=O)c1cc2c(NC(Cc3ccccc3)N[S]2(=O)=O)cc1C(F)(F)F,-3.5913
quinethazone,CCC1NC(=O)c2cc(c(Cl)cc2N1)[S](N)(=O)=O,-3.2859
methane,C,-2.8629
hydrocyanic acid,C#N,1.5682
propyne,CC#C,-1.0417
ethylamine,CCN,1.346
formamide oxime,ON=C,0.5768
ethylene oxide,C1CO1,1.356
bromoform,BrC(Br)Br,-1.9113
2-iodopropane,CC(C)I,-2.0843
isopropylamine,CC(C)N,1.2283
iodoform,IC(I)I,-3.5952
2-methylaziridine,CC1CN1,1.2434
cacodylic acid,C[As](C)(O)=O,1.1612
acetone cyanohydrin,CC(C)(O)C#N,1.07
"1,1,1-trifluoro-2-chloroethane",FC(F)(F)CCl,-1.1098
"acetic acid, tribromo-",[O-]C(=O)C(Br)(Br)Br,-0.1713
"3,3-dimethyl-2-butanone",CC(=O)C(C)(C)C,-0.7219
dalapon,CC(Cl)(Cl)C(O)=O,0.5455
"1,1,1-trichloro-2-propanol",CC(O)C(Cl)(Cl)Cl,-0.7574
"acetic acid, chlorodifluoro-",OC(=O)C(F)(F)Cl,0.8845
"1,1,1,2-tetrachloro-2,2-difluoroethane",FC(F)(Cl)C(Cl)(Cl)Cl,-3.3093
"1,1,2,2,-tetrachlorodifluoroethane",FC(Cl)(Cl)C(F)(Cl)Cl,-3.2301
camphor,CC1(C)C2CCC1(C)C(=O)C2,-1.9784
alloxantin,OC1(C(=O)NC(=O)NC1=O)C2(O)C(=O)NC(=O)NC2=O,-1.9942
triamcinolone acetonide,CC1(C)O[C@@H]2C[C@H]3[C@@H]4CCC5=CC(=O)C=C[C@]5(C)[C@@]4(F)[C@@H](O)C[C@]3(C)[C@@]2(O1)C(=O)CO,-4.3158
2-methyl-2-nitro-1-propanol,CC(C)(CO)[N+]([O-])=O,1.4681
"2,2,3-trichloro-1,1-butanediol",CC(Cl)C(Cl)(Cl)C(O)O,-0.8666
heptachlor,ClC1C=CC2C1C3(Cl)C(=C(Cl)C2(Cl)C3(Cl)Cl)Cl,-6.3168
codeine,COc1ccc2C[C@@H]3[C@@H]4C=C[C@H](O)[C@@H]5Oc1c2[C@]45CCN3C,-1.5219999999999998
dionine,CCOc1ccc2C[C@@H]3[C@@H]4C=C[C@H](O)[C@@H]5Oc1c2[C@]45CCN3C,-2.079
"benzenemethanol, 4-amino-.alpha.,.alpha.-bis(4-a",Cc1cc(ccc1N)C(O)(c2ccc(N)cc2)c3ccc(N)cc3,-3.0272
triphenylcarbinol,OC(c1ccccc1)(c2ccccc2)c3ccccc3,-2.2596
"barbituric acid,5-me-5-phenyl-",CC1(C(=O)NC(=O)NC1=O)c2ccccc2,-2.4581
phenolphthalein,Oc1ccc(cc1)C2(OC(=O)c3ccccc23)c4ccc(O)cc4,-2.9008
butalbital,CC(C)CC1(CC=C)C(=O)NC(=O)NC1=O,-2.1193
chlorthalidone,N[S](=O)(=O)c1cc(ccc1Cl)C2(O)NC(=O)c3ccccc23,-3.4507
"2-methyl-2-nitropropane-1,3-diol",CC(CO)(CO)[N+]([O-])=O,0.7724
3-methyl-3-pentanol,CCC(C)(O)CC,-0.38
tabun,CCO[P](=O)(C#N)N(C)C,-0.2186
acetyl tributyl citrate,CCCCOC(=O)CC(CC(=O)OCCCC)(OC(C)=O)C(=O)OCCCC,-4.9058
triethyl citrate,CCOC(=O)CC(O)(CC(=O)OCC)C(=O)OCC,-0.6285
"1,1,1-tris(hydroxymethyl)propane",CCC(CO)(CO)CO,0.8723
pentaerythritol tetranitrate,[O-][N+](=O)OCC(CO[N+]([O-])=O)(CO[N+]([O-])=O)CO[N+]([O-])=O,-3.8664
"3-pentanol, 3-methyl-, carbamate",CCC(C)(CC)OC(N)=O,-1.5599
tri-p-cresyl phosphate,Cc1ccc(O[P](=O)(Oc2ccc(C)cc2)Oc3ccc(C)cc3)cc1,-6.0892
carisoprodol,CCCC(C)(COC(N)=O)COC(=O)NC(C)C,-2.9384
dibutyl butylphosphonate,CCCCO[P](=O)(CCCC)OCCCC,-2.6995
menazon,CO[P](=S)(OC)SCc1nc(N)nc(N)n1,-3.069
linalool,CC(C)=CCCC(C)(O)C=C,-1.9871
"ethane, 1,1,2-tribromo-",BrCC(Br)Br,-2.7272
"1,2-dibromopropane",CC(Br)CBr,-2.1498
isobutylamine,CC(C)CN,1.1359
"2,3-dichloropropene",ClCC(Cl)=C,-1.7128
chloroacetone,CC(=O)CCl,-0.012
1-amino-2-propanol,CC(O)CN,1.1243
"1,1-dichloropropane",CCC(Cl)Cl,-1.6217
bromoacetic acid,OC(=O)CBr,1.1002
peroxyacetic acid,CC(=O)OO,1.1189
dichloroacetic acid,OC(=O)C(Cl)Cl,0.8896
d-pantothenic acid,CC(C)(CO)C(O)C(=O)NCCC(O)=O,0.6591
"3-furancarboxylic acid, tetrahydro-2,2-dimethyl-",CC1(C)OC(=O)C[C@@H]1C([O-])=O,-1.2449
"benzenesulfonamide, 4-amino-n-[5-(1-methylethyl)",CC(C)c1sc(N[S](=O)(=O)c2ccc(N)cc2)nn1,-3.4141
"peroxide, bis(1-methyl-1-phenylethyl)",CC(C)(OOC(C)(C)c1ccccc1)c2ccccc2,-5.7692
p-tert-amylphenol,CCC(C)(C)c1ccc(O)cc1,-2.9902
"preg-4-ene-3,20-dione, 11-hydroxy-, (11.alpha.)-",CC(=O)C1CC[C@H]2[C@@H]3CCC4=CC(=O)CC[C@]4(C)[C@H]3[C@H](O)C[C@]12C,-3.8202
chlormezanone,CN1C(c2ccc(Cl)cc2)[S](=O)(=O)CCC1=O,-2.0394
musk ketone,CC(=O)c1c(C)c(c(c(c1C)[N+]([O-])=O)C(C)(C)C)[N+]([O-])=O,-5.1901
cholic acid,C[C@H](CCC(O)=O)[C@H]1CC[C@H]2[C@@H]3[C@H](O)C[C@@H]4C[C@H](O)CC[C@]4(C)[C@H]3C[C@H](O)[C@]12C,-3.3682
purpurin,Oc1cc(O)c2C(=O)c3ccccc3C(=O)c2c1O,-4.6024
coumachlor,CC(=O)CC(c1ccc(Cl)cc1)C2=C(O)Oc3ccccc3C2=O,-5.836
"benzoic acid, 2- bis(4-hydroxyphenyl)methyl -",Oc1ccc(cc1)C(c2ccc(O)cc2)c3ccccc3C(O)=O,-3.2626
"1-amino-2-methyl-9,10-anthracenedione",Cc1ccc2C(=O)c3ccccc3C(=O)c2c1N,-5.8541
"1,8-anthraquinonedisulfonic acid",O[S](=O)(=O)c1cccc2C(=O)c3cccc(c3C(=O)c12)[S](O)(=O)=O,1.2572
cyclizine,CN1CCN(CC1)C(c2ccccc2)c3ccccc3,-2.4255
pindone,CC(C)(C)C(=O)C1C(=O)c2ccccc2C1=O,-4.107
methylprednisolone,C[C@H]1C[C@H]2[C@@H]3CC[C@](O)(C(=O)CO)[C@@]3(C)C[C@H](O)[C@@H]2[C@@]4(C)C=CC(=O)C=C14,-3.4942
deoxycholic acid,C[C@H](CCC(O)=O)[C@H]1CC[C@H]2[C@@H]3CC[C@@H]4C[C@H](O)CC[C@]4(C)[C@H]3C[C@H](O)[C@]12C,-3.9544
"4(1h)-quinolinone, 1-methyl-",CN1C=CC(=O)c2ccccc12,-0.9818
rotenone,COc1cc2OC[C@H]3Oc4c5C[C@@H](Oc5ccc4C(=O)[C@H]3c2cc1OC)C(C)=C,-6.2949
phytic acid,O[P](O)(=O)O[C@H]1[C@H](O[P](O)(O)=O)[C@@H](O[P](O)(O)=O)[C@H](O[P](O)(O)=O)[C@@H](O[P](O)(O)=O)[C@H]1O[P](O)(O)=O,0.1804
riboflavin,Cc1cc2N=C3C(=O)NC(=O)N=C3N(CC(O)C(O)C(O)CO)c2cc1C,-3.6478
o-terphenyl,c1ccc(cc1)c2ccccc2c3ccccc3,-5.2692
quininone,COc1ccc2nccc(C(=O)C3CC4CCN3CC4C=C)c2c1,-5.0313
"2,6-dihydroxy-anthraquinone",Oc1ccc2C(=O)c3cc(O)ccc3C(=O)c2c1,-5.8892
diphenyl phthalate,O=C(Oc1ccccc1)c2ccccc2C(=O)Oc3ccccc3,-6.5891
didecyl phthalate,CCCCCCCCCCOC(=O)c1ccccc1C(=O)OCCCCCCCCCC,-9.3076
xanthoxyletin,COc1c2C=CC(=O)Oc2cc3OC(C)(C)C=Cc13,-3.81
8-chlorotheophylline,CN1C(=O)N(C)c2nc(Cl)[nH]c2C1=O,-1.5075
"benzoic acid, 2-(4-chlorobenzoyl)-",OC(=O)c1ccccc1C(=O)c2ccc(Cl)cc2,-2.7171
3'-methylphthalanilic acid,Cc1cccc(NC(=O)c2ccccc2C(O)=O)c1,-2.407
"2,7-naphthalenedisulfonic acid, 1-amino-",Nc1ccc(c2cc(ccc12)[S](O)(=O)=O)[S](O)(=O)=O,-0.2592
"1,6-naphthalenedisulfonic acid, 4-amino-",Nc1ccc(c2ccc(cc12)[S](O)(=O)=O)[S](O)(=O)=O,-1.643
diphenylacetonitrile,N#CC(c1ccccc1)c2ccccc2,-2.9437
8-quinolinecarboxylic acid,OC(=O)c1cccc2cccnc12,-1.7447
"benzaldehyde, 3,4,5-trimethoxy-",COc1cc(C=O)cc(OC)c1OC,-2.1195
"benzoic acid, 2-hydroxy-, 3-methylbutyl ester",CC(C)CCOC(=O)c1ccccc1O,-3.1572
"benzoic acid, 2-hydroxy-, 2-hydroxyethyl ester",OCCOC(=O)c1ccccc1O,-1.1567
n-acetyl-dl-tryptophan,CC(=O)N[C@@H](Cc1c[nH]c2ccccc12)C([O-])=O,-2.3122
6-chloropurine,Clc1ncnc2nc[nH]c12,-1.4901
pyrolan,CN(C)C(=O)Oc1cc(C)nn1c2ccccc2,-2.0886
2-methyl-6-chlorophenol,Cc1cccc(Cl)c1O,-0.7739
"1,2,3-trihydroxybenzene",Oc1cccc(O)c1O,0.6043
hexabromobenzene,Brc1c(Br)c(Br)c(Br)c(Br)c1Br,-9.5374
"1,3,5-trichloroisocyanuric acid",ClN1C(=O)N(Cl)C(=O)N(Cl)C1=O,-1.2871
"2,4,6-trichlorophenol",Oc1c(Cl)cc(Cl)cc1Cl,-2.3924
2-acetylthiophene,CC(=O)c1sccc1,-0.9549
3-trifluoromethyl-4-nitrophenol,Oc1ccc(c(c1)C(F)(F)F)[N+]([O-])=O,-1.6172
dinoseb,CCC(C)c1cc(cc(c1O)[N+]([O-])=O)[N+]([O-])=O,-3.6646
"1,2-benzenedicarboxamide",NC(=O)c1ccccc1C(N)=O,-2.4371
"benzeneacetic acid, 2-carboxy-",OC(=O)Cc1ccccc1C(O)=O,-1.0515
4-chloro-2-nitroaniline,Nc1ccc(Cl)cc1[N+]([O-])=O,-2.5380000000000003
4-chloro-2-nitrophenol,Oc1ccc(Cl)cc1[N+]([O-])=O,-3.0902
"d-glycero-d-gulo-heptonic acid, .gamma.-lactone",OCC(O)C(O)C1OC(=O)C(O)C1O,0.3348
chlorothymol,CC(C)c1cc(Cl)c(C)cc1O,-2.2664
1-bromonaphthalene,Brc1cccc2ccccc12,-4.3468
l-sparteine,C1CCN2C[C@@H]3C[C@@H](CN4CCCC[C@H]34)[C@@H]2C1,-1.8871
penicillic acid,COC(=CC(O)=O)C(=O)C(C)=C,-0.9299
"d-gluconic acid, .delta.-lactone",OCC1OC(=O)C(O)C(O)C1O,0.5201
"4,4-bis(dimethylamino)benzophenone",CN(C)c1ccc(cc1)C(=O)c2ccc(cc2)N(C)C,-2.8267
quinoxaline,c1ccc2nccnc2c1,0.7051
2-naphthylamine,Nc1ccc2ccccc2c1,-2.8795
methapyrilene,CN(C)CCN(Cc1sccc1)c2ccccn2,-2.6383
4-phenylcatechol,Oc1ccc(cc1O)c2ccccc2,-2.0659
m-terphenyl,c1ccc(cc1)c2cccc(c2)c3ccccc3,-5.183
tolonium chloride,[Cl-].CN(C)c1ccc2nc3cc(C)c(N)cc3[s+]c2c1,-0.9034
"2,3-naphthalenediol",Oc1cc2ccccc2cc1O,-2.7377
"ethanol, 2-(ethylphenylamino)-",CCN(CCO)c1ccccc1,-1.9171
"3,6-diaminoacridine",Nc1ccc2cc3ccc(N)cc3nc2c1,0.3783
4-acetylbiphenyl,CC(=O)c1ccc(cc1)c2ccccc2,-3.3104
p-nitrobiphenyl,[O-][N+](=O)c1ccc(cc1)c2ccccc2,-5.2094
"benzaldehyde, 2,5-dimethoxy-",COc1ccc(OC)c(C=O)c1,-2.3202