Name,SMILES,Solubility
2-mercaptocinnamic  acid;  2-mercapto-3-phenylpropenoic acid,OC(=O)/C(S)=C/C1=CC=CC=C1,-2.96
2-mercapto-3-phenylpropionic  acid;  2-mercapto-3-phenylpropanoic acid,OC(=O)C(S)CC1=CC=CC=C1,-1.56
4-(4-chlorophenoxy)butyric acid;  4-(4-chlorophenoxy)butanoic acid,OC(=O)CCCOC1=CC=C(Cl)C=C1,-3.29
"2,3-pyridinedicarboxylic  acid;  quinolinic  acid",OC(=O)C1=CC=CN=C1C(O)=O,-1.48
n-piperidin-1-ylmethylbenzamide,O=C(NCN1CCCCC1)C2=CC=CC=C2,-2.15
4-acetylphenyl acetate;  acetic acid 4-acetylphenyl ester;  4-acetoxyacetophenone,CC(=O)OC1=CC=C(C=C1)C(C)=O,-1.52
4-acetoxybenzamide;  4-carbamoylphenyl  acetate,CC(=O)OC1=CC=C(C=C1)C(N)=O,-1.64
1-acetyl-5-fluorouracil,CC(=O)N1C=C(F)C(=O)NC1=O,-0.6
3-nitrophenyl  isothiocyanate;  3-isothiocyanatonitrobenzene,[O-][N+](=O)C1=CC=CC(=C1)N=C=S,-3.55
3-(2-aminoethyl)indole;  tryptamine,NCCC1=C[NH]C2=C1C=CC=C2,-3.3
lithocholic  acid;  3alpha-hydroxy-5beta-cholanoic  acid,CC(CCC(O)=O)C1CCC2C3CCC4CC(O)CCC4(C)C3CCC12C,-7.34
3-acetyl-5-fluorouracil,CC(=O)N1C(=O)NC=C(F)C1=O,-0.6
7-alpha-hydroxy-5beta-cholanoic  acid,CC(CCC(O)=O)C1CCC2C3C(O)CC4CCCCC4(C)C3CCC12C,-6.46
"1,3-diisothiocyanatobenzene",S=C=NC1=CC=CC(=C1)N=C=S,-4.7
"prasterone  acetate;  dehydroepiandrosterone  acetate; prasterone acetate; 5,6-dehydroisoandrosterone acetate",CC(=O)OC1CCC2(C)C3CCC4(C)C(CCC4=O)C3CC=C2C1,-4.53
2-[(3-hydroxyphenyl)hydrazono]malononitrile,OC1=CC=CC(=C1)NN=C(C#N)C#N,-2.95
2-methoxypurine,COC1=NC2=C([NH]C=N2)C=N1,-1.48
fenethcarb,CCC1=CC(=CC(=C1)OC(=O)NC)CC,-3.32
ethyl  vanillate; 4-hydroxy-3-methoxybenzoic acid ethyl ester; vanillic acid ethyl ester,CCOC(=O)C1=CC(=C(O)C=C1)OC,-1.72
1-acetylamino-3-isothiocyanatobenzene,CC(=O)NC1=CC=CC(=C1)N=C=S,-3.53
6-methoxypurine,COC1=NC=NC2=C1[NH]C=N2,-1.53
8-hydroxymethylpurine,OCC1=NC2=C([NH]1)C=NC=N2,-1.52
4-(methoxycarbonyl)acetanilide;  4-acetylaminobenzoic acid methyl ester,COC(=O)C1=CC=C(NC(C)=O)C=C1,-1.9
7-methylpteridine,CC1=NC2=C(C=NC=N2)N=C1,-0.01
"4,6-di(isopropylamino)-1,3,5-triazine-2(1h)-one;   ""hydroxypropazine""",CC(C)NC1=NC(=NC(=O)N1)NC(C)C,-2.81
2-[(4-chlorophenyl)hydrazono]malononitrile,ClC1=CC=C(NN=C(C#N)C#N)C=C1,-4.36
stanolone  acetate,CC(=O)OC1CCC2C3CCC4CC(=O)CCC4(C)C3CCC12C,-5.35
"butane-1,2,3,4-tetracarboxylic  acid",OC(=O)CC(C(CC(O)=O)C(O)=O)C(O)=O,-0.18
4-hydroxyisophthalic  acid,OC(=O)C1=CC=C(O)C(=C1)C(O)=O,-1.78
methyl 4-acetoxybenzoate;  4-acetoxybenzoic acid methyl ester,COC(=O)C1=CC=C(OC(C)=O)C=C1,-2.5
prasterone  propionate,CCC(=O)OC1CCC2(C)C3CCC4(C)C(CCC4=O)C3CC=C2C1,-4.69
7-aminopteridine,NC1=NC2=C(C=NC=N2)N=C1,-2.31
6-aminopteridine,NC1=NC2=C(N=CN=C2)N=C1,-2.34
n-butanoyl-n'-isonicotinoylhydrazine,CCCC(=O)NNC(=O)C1=CC=NC=C1,-0.32
4-ureidophenyl  acetate;  acetic acid 4-ureidophenyl ester,CC(=O)OC1=CC=C(NC(N)=O)C=C1,-2.49
"2-hydroxyisophthalic acid; 2-hydroxy-1,3-benzenedicarboxylic acid",OC(=O)C1=C(O)C(=CC=C1)C(O)=O,-2.11
"2,6-diaminopurine",NC1=NC2=C(N=C[NH]2)C(=N1)N,-1.8
"4-diethylamino-6-ethylamino-1,3,5-triazine-2(1h)-one;   ""hydroxytrietazine""",CCNC1=NC(=NC(=O)N1)N(CC)CC,-3.64
3-iodophenyl  isothiocyanate;  3-isothiocyanatoiodobenzene,IC1=CC=CC(=C1)N=C=S,-4.68
4-aminopteridine,NC1=NC=NC2=C1N=CC=N2,-2.31
diosgenin,CC1CCC2(OC1)OC3CC4C5CC=C6CC(O)CCC6(C)C5CCC4(C)C3C2C,-7.32
7-pteridinone;  8h-pteridin-7-one,O=C1NC2=C(C=NC=N2)N=C1,-2.12
6-pteridinone;  5h-pteridin-6-one,O=C1NC2=C(N=CN=C2)N=C1,-2.71
2-pteridinone,O=C1NC2=C(C=N1)N=CC=N2,-2.0
3-hydroxyphthalic acid,OC(=O)C1=CC=CC(=C1C(O)=O)O,-2.11
4-ethoxycarbonylphenyl isothiocyanate;  4-isothiocyanatobenzoic acid ethyl ester,CCOC(=O)C1=CC=C(C=C1)N=C=S,-4.05
"2-chloro-4-isopropylamino-6-propylamino-1,3,5-triazine",CCCNC1=NC(=NC(=N1)Cl)NC(C)C,-3.74
isoguanine;  6-amino-3h-purin-2-one,NC1=NC(=O)NC2=C1N=C[NH]2,-3.38
"purine-2,8-dione",O=C1NC2=C(N1)C=NC(=O)N2,-3.6
"purine-6,8-dione",O=C1NC2=C(N1)C(=O)NC=N2,-2.96
acetylmandelic acid (rac.);  alpha-acetoxyphenylacetic (rac.),CC(=O)OC(C(O)=O)C1=CC=CC=C1,-1.23
"2,5-dichlorophenoxyacetic acid",OC(=O)COC1=C(Cl)C=CC(=C1)Cl,-2.62
"2,6-dichlorophenoxyacetic  acid",OC(=O)COC1=C(Cl)C=CC=C1Cl,-2.15
"6-dimethylaminopurine;  n6,n6-dimethyladenine",CN(C)C1=NC=NC2=C1N=C[NH]2,-1.3
n-isonicotinoyl-n'-pentanoylhydrazine,CCCCC(=O)NNC(=O)C1=CC=NC=C1,-1.01
3-butyryl-5-fluorouracil,CCCC(=O)N1C(=O)NC=C(F)C1=O,-1.28
4-acetamidophenyl  propionate; acetaminophen propionate; 4-propanoyloxyacetanilide,CCC(=O)OC1=CC=C(NC(C)=O)C=C1,-2.72
4-toluenesulfonic acid hydrazide,CC1=CC=C(C=C1)[S](=O)(=O)NN,-1.48
n-(5-chloro-4-methylthiazol-2-yl)propionamide,CCC(=O)NC1=NC(=C(Cl)S1)C,-3.06
hyocholic  acid,CC(CCC(O)=O)C1CCC2C3C(O)C(O)C4CC(O)CCC4(C)C3CCC12C,-4.35
2-chloropteridine,ClC1=NC2=C(C=N1)N=CC=N2,-0.71
nandrolone  butyrate,CCCC(=O)OC1CCC2C3CCC4=CC(=O)CCC4C3CCC12C,-5.91
"5,6-dehydroisoandrosterone  valerate;  prasterone  valerate",CCCCC(=O)OC1CCC2(C)C3CCC4(C)C(CCC4=O)C3CC=C2C1,-4.76
"chlormethiuron;  3-(4-chloro-2-methylphenyl)-1,3-dimethylthiourea",CNC(=S)N(C)C1=C(C)C=C(Cl)C=C1,-3.66
4-diazobenzenesulfonic  acid,O[S](=O)(=O)C1=CC=C(C=C1)[N+]#N,-2.42
pyracarbolid;  sicarol,CC1=C(CCCO1)C(=O)NC2=CC=CC=C2,-2.56
4-(methoxycarbonyloxy)acetanilide,COC(=O)OC1=CC=C(NC(C)=O)C=C1,-1.69
4-aminotoluene-2-sulfonic acid,CC1=C(C=C(N)C=C1)[S](O)(=O)=O,-1.62
propyl  4-acetylaminobenzoate;  4-acetylaminobenzoic acid propyl ester,CCCOC(=O)C1=CC=C(NC(C)=O)C=C1,-3.29
3-propanoyloxymethyl-5-fluorouracil,CCC(=O)OCN1C(=O)NC=C(F)C1=O,-0.77
6-methoxypteridine,COC1=NC2=C(N=CN=C2)N=C1,-1.14
7-methoxypteridine,COC1=NC2=C(C=NC=N2)N=C1,-0.91
n1-isonicotinoyl-n2-hexanoylhydrazine,CCCCCC(=O)NNC(=O)C1=CC=NC=C1,-1.24
l-dopa methyl ester,COC(=O)C(N)CC1=CC(=C(O)C=C1)O,0.48
"6,7-dimethylpteridine",CC1=NC2=C(N=CN=C2)N=C1C,-0.46
pteridine-7-thione; pteridine-7-thiol,S=C1NC2=C(C=NC=N2)N=C1,-2.71
pteridine-2-thione,S=C1NC2=C(C=N1)N=CC=N2,-2.68
ergothioneine,C[N+](C)(C)C(CC1=CN=C(S)[NH]1)C([O-])=O,-0.46
1-(n-propylcarbamoyl)-5-fluorouracil;  1-propylaminocarbonyl-5-fluorouracil,CCCNC(=O)N1C=C(F)C(=O)NC1=O,-1.83
3-pentanoyl-5-fluorouracil;  3-valeroyl-5-fluorouracil,CCCCC(=O)N1C(=O)NC=C(F)C1=O,-2.3
3-deazauridine,OCC1OC(C(O)C1O)N2C=CC(=O)CC2=O,-0.77
acetaminophen  butyrate,CCCC(=O)OC1=CC=C(NC(C)=O)C=C1,-2.83
8-methyl-8h-pteridin-7-one,CN1C(=O)C=NC2=C1N=CN=C2,-0.92
methyltestosterone  acetate,CC(=O)OC1(C)CCC2C3CCC4=CC(=O)CCC4(C)C3CCC12C,-5.28
3-methyl-3h-pteridin-4-one,CN1C=NC2=C(N=CC=N2)C1=O,-1.07
raffinose,OCC1OC(OCC2OC(OC3(CO)OC(CO)C(O)C3O)C(O)C(O)C2O)C(O)C(O)C1O,0.3
2-aminopurine-6-thione;  thioguanine,NC1=NC2=C(N=C[NH]2)C(=S)N1,-3.31
4-[(ethoxycarbonyloxy)methoxy]acetanilide,CCOC(=O)OCOC1=CC=C(NC(C)=O)C=C1,-2.43
adrenosterone,CC12CC(=O)C3C(CCC4=CC(=O)CCC34C)C1CCC2=O,-3.48
norethindrone  dimethylpropionate,CC(C)(C)C(=O)OC1(CCC2C3CCC4=CC(=O)CCC4C3CCC12C)C#C,-7.16
2-(trimethylacetoxy)benzoic  acid,CC(C)(C)C(=O)OC1=C(C=CC=C1)C(O)=O,-3.01
n-isonicotinoyl-n'-heptanoylhydrazine,CCCCCCC(=O)NNC(=O)C1=CC=NC=C1,-2.1
"2,6,8-triaminopurine",NC1=NC2=C([NH]1)N=C(N)N=C2N,-1.52
7-methyl-3h-pteridin-4-one,CC1=NC2=C(N=C1)C(=O)NC=N2,-1.56
butyl  4-acetylaminobenzoate;  4-acetylaminobenzoic acid butyl ester,CCCCOC(=O)C1=CC=C(NC(C)=O)C=C1,-3.46
6-methyl-3h-pteridin-4-one;  4-hydroxy-6-methylpteridine,CC1=NC2=C(N=CNC2=O)N=C1,-1.65
"2,4-diaminopteridine",NC1=NC2=C(N=CC=N2)C(=N1)N,-2.69
testosterone butyrate,CCCC(=O)OC1CCC2C3CCC4=CC(=O)CCC4(C)C3CCC12C,-5.93
3-butanoyloxymethyl-5-fluorouracil,CCCC(=O)OCN1C(=O)NC=C(F)C1=O,-1.13
2-[(4-acetylphenyl)hydrazono]malononitrile,CC(=O)C1=CC=C(NN=C(C#N)C#N)C=C1,-2.71
4-amino-2(1h)-pteridinone;  4-amino-2-hydroxypteridine,NC1=NC(=O)NC2=C1N=CC=N2,-3.36
2-amino-4(1h)-pteridinone;  2-amino-4-hydroxypteridine,NC1=NC(=O)C2=C(N1)N=CC=N2,-3.97
"6,7-pteridinedione",O=C1NC2=C(NC1=O)N=CN=C2,-2.69
4-acetoxybenzaldehydesemicarbazone,CC(=O)OC1=CC=C(C=C1)\C=N\NC(N)=O,-2.84
"4,7-pteridinedione;  4,7(3h,8h)-pteridinedione",O=C1NC2=C(N=C1)C(=O)NC=N2,-2.82
7-dimethylaminopteridine,CN(C)C1=NC2=C(C=NC=N2)N=C1,-0.09
"4,6-pteridinedione",O=C1NC2=C(N=CNC2=O)N=C1,-2.96
n-isonicotinoyl-n'-octanoylhydrazine,CCCCCCCC(=O)NNC(=O)C1=CC=NC=C1,-2.91
testosterone valerate,CCCCC(=O)OC1CCC2C3CCC4=CC(=O)CCC4(C)C3CCC12C,-6.19
"wl 9385;  6-azido-n-butyl-n-ethyl-[1,3,5]triazine-2,4-diamine",CCCCN(CC)C1=NC(=NC(=N1)N=[N+]=[N-])N,-3.52
"1-(1-aziridinyl)-2,4-dinitrobenzene",[O-][N+](=O)C1=CC=C(N2CC2)C(=C1)[N+]([O-])=O,-3.0
4-(propoxycarbonyloxy)acetanilide,CCCOC(=O)OC1=CC=C(NC(C)=O)C=C1,-2.57
3-pentanoyloxymethyl-5-fluorouracil;  3-valeroyloxymethyl-5-fluorouracil,CCCCC(=O)OCN1C(=O)NC=C(F)C1=O,-1.66
aziprotryne,CSC1=NC(=NC(=N1)N=[N]#N)NC(C)C,-3.48
7-methylmercaptopteridine; pteridine-7-methyl-thiol,CSC1=NC2=C(C=NC=N2)N=C1,-1.55
"3,4,5-trichlorophenoxyacetic acid",OC(=O)COC1=CC(=C(Cl)C(=C1)Cl)Cl,-2.94
acetaminophen hexanoate,CCCCCC(=O)OC1=CC=C(NC(C)=O)C=C1,-4.14
n-isonicotinoyl-n'-nonanoylhydrazine,CCCCCCCCC(=O)NNC(=O)C1=CC=NC=C1,-3.52
2-(diethylacetoxy)benzoic  acid,CCC(CC)C(=O)OC1=C(C=CC=C1)C(O)=O,-1.84
"2,3,5-trichlorophenoxyacetic  acid",OC(=O)COC1=C(Cl)C(=CC(=C1)Cl)Cl,-3.0
mepivacaine,CN1CCCCC1C(=O)NC2=C(C)C=CC=C2C,-1.99
2-benzoyloxy-(n-cyclohexyl)acetamide;  n-cyclohexyl-2-benzoyloxyacetamide,O=C(COC(=O)C1=CC=CC=C1)NC2CCCCC2,-3.9
2-[(2-nitrophenyl)hydrazono]malononitrile,[O-][N+](=O)C1=C(NN=C(C#N)C#N)C=CC=C1,-3.93
dihydroequilin,CC12CCC3C(=CCC4=C3C=CC(=C4)O)C1CCC2O,-4.4
2-benzoylpyridine,O=C(C1=CC=CC=C1)C2=NC=CC=C2,-2.02
5-fluorouracil-3-methyl  hexanoate;  3-hexanoyloxymethyl-5-fluorouracil,CCCCCC(=O)OCN1C(=O)NC=C(F)C1=O,-2.11
cycloxydim,CCCC(=N\OCC)/C1=C(O)CC(CC1=O)C2CCCSC2,-3.58
4-(butoxycarboxy)acetanilide,CCCCOC(=O)OC1=CC=C(NC(C)=O)C=C1,-3.37
2-naphthyl  acetate,CC(=O)OC1=CC2=C(C=CC=C2)C=C1,-3.44
nandrolone nonanoate,CCCCCCCCC(=O)OC1CCC2C3CCC4=CC(=O)CCC4C3CCC12C,-5.72
"2-benzoyloxy-n,n-(diethyl)propionamide;  2-benzoyloxy-n,n-(diethyl)propanoic acid amide",CCN(CC)C(=O)C(C)OC(=O)C1=CC=CC=C1,-2.28
1-(hydroxymethyl)glutethimide,CCC1(CCC(=O)N(CO)C1=O)C2=CC=CC=C2,-1.66
n-isonicotinoyl-n'-decanoylhydrazine;  n-decanoyl-n'-isonicotinoylhydrazine,CCCCCCCCCC(=O)NNC(=O)C1=CC=NC=C1,-4.17
di(4-tolyl)  ether,CC1=CC=C(OC2=CC=C(C)C=C2)C=C1,-4.85
4-[(2-methoxy)ethoxycarbonyloxy]acetanilide,COCCOC(=O)OC1=CC=C(NC(C)=O)C=C1,-1.69
n-hydroxymethyl-5-chlorobenzoxazol-2-one; n-(hydroxymethyl)chlorzoxazone,OCN1C(=O)OC2=CC=C(Cl)C=C12,-2.7
1-acetylallopurinol,CC(=O)[N]1N=CC2=C1N=CNC2=O,-2.38
"tridiphane;  2-(3,5-dichlorophenyl)-2-(2,2,2-trichloroethyl)oxirane",ClC1=CC(=CC(=C1)C2(CO2)CC(Cl)(Cl)Cl)Cl,-5.25
"6,7-dimethyl-3h-pteridin-4-one;  4-hydroxy-6,7-dimethylpteridine",CC1=NC2=C(N=C1C)C(=O)NC=N2,-2.29
canrenoic  acid,CC12CCC(=O)C=C1C=CC3C2CCC4(C)C3CCC4(O)CCC(O)=O,-5.17
"2-oxo-5-indolinyl acetate;  acetic acid 2-oxo-2,3-dihydro-1h-indol-5-yl ester;  5-acetoxy-2-oxo-2,3-dihydroindole",CC(=O)OC1=CC2=C(NC(=O)C2)C=C1,-1.54
"6,7-diethylpteridine",CCC1=NC2=C(N=CN=C2)N=C1CC,-0.18
amiloride,NC(=N)NC(=O)C1=NC(=C(N)N=C1N)Cl,-2.87
2'-diethylaminoethyl  4-acetamidobenzoate,CCN(CC)CCOC(=O)C1=CC=C(NC(C)=O)C=C1,-1.65
2-{[4-(2-chloroacetyl)phenyl]hydrazono}malononitrile,ClCC(=O)C1=CC=C(NN=C(C#N)C#N)C=C1,-3.19
l-dopa pentyl ester,CCCCCOC(=O)C(N)CC1=CC(=C(O)C=C1)O,-0.99
"benzyl  2,2-diethylmalonurate",CCC(CC)(C(=O)NC(N)=O)C(=O)OCC1=CC=CC=C1,-3.66
acetaminophen  octanoate;  4-(octanoyloxy)acetanilide,CCCCCCCC(=O)OC1=CC=C(NC(C)=O)C=C1,-4.44
n-cyclohexyl-n-methyl-2-(benzoyloxy)acetamide,CN(C1CCCCC1)C(=O)COC(=O)C2=CC=CC=C2,-3.29
"2-amino-4,6(1h,5h)-pteridinedione;  2-amino-4,6-pteridinediole;  xanthopterine",NC1=NC(=O)C2=C(N1)N=CC(=O)N2,-3.86
"2,4,7(1h,3h,8h)-pteridinetrione;  2,4,7-pteridinetrione",O=C1NC(=O)C2=C(N1)NC(=O)C=N2,-3.34
n-[2-(benzoyloxy)acetyl]-2-ethylpiperidine,CCC1CCCCN1C(=O)COC(=O)C2=CC=CC=C2,-2.72
3-octanoyloxymethyl-5-fluorouracil,CCCCCCCC(=O)OCN1C(=O)NC=C(F)C1=O,-3.29
"4,6,7-pteridinetrione;  4,6,7(3h,5h,8h)-pteridinetrione",O=C1NC=NC2=C1NC(=O)C(=O)N2,-3.69
equilin,CC12CCC3C(=CCC4=C3C=CC(=C4)O)C1CCC2=O,-4.99
methyl  2-ethyl-2-phenylmalonurate,CCC(C(=O)NC(N)=O)(C(=O)OC)C1=CC=CC=C1,-2.75
4-[(1-methyl-2-methoxy)ethoxy]carboxyacetanilide; 4-[(2-methoxy-1-methylethyloxy)carbonyloxy]acetanilide,COCC(C)OC(=O)OC1=CC=C(NC(C)=O)C=C1,-2.48
4-hexyloxycarbonyloxyacetanilide,CCCCCCOC(=O)OC1=CC=C(NC(C)=O)C=C1,-4.32
"1,5-bis(hydroxymethyl)allopurinol",OCN1C=NC2=C(C=N[N]2CO)C1=O,-1.72
1-propanoylallopurinol,CCC(=O)[N]1N=CC2=C1N=CNC2=O,-2.81
"n,n-diisobutyl-2-benzoyloxyacetamide",CC(C)CN(CC(C)C)C(=O)COC(=O)C1=CC=CC=C1,-3.56
"norethindrone  enanthate, norethindrone heptanoate; norethisterone enanthate",CCCCCCC(=O)OC1(CCC2C3CCC4=CC(=O)CCC4C3CCC12C)C#C,-6.89
picein,CC(=O)C1=CC=C(OC2OC(CO)C(O)C(O)C2O)C=C1,-1.17
"6-(2-hydroxyethyl)amino-7-methyl-3,7-dihydro-2h-purin-2-one",C[N]1C=NC2=C1C(=NC(=O)N2)NCCO,0.08
"1-[5-(2-chloro-1,1-dimethylethyl)-[1,3,4]thiadiazol-2-yl]-1,3-dimethylurea",CNC(=O)N(C)C1=NN=C(S1)C(C)(C)CCl,-2.47
"2-benzoyloxy-n,n-bis(2-hydroxypropyl)acetamide; n,n-bis(2-hydroxypropyl)-2-benzoyloxyacetamide",CC(O)CN(CC(C)O)C(=O)COC(=O)C1=CC=CC=C1,-1.18
acetaminophen  decanoate,CCCCCCCCCC(=O)OC1=CC=C(NC(C)=O)C=C1,-4.53
thiophenobarbital;  5-ethyl-5-phenyl-2-thiobarbituric  acid,CCC1(C(=O)NC(=S)NC1=O)C2=CC=CC=C2,-3.58
4-biphenyl  isothiocyanate;  4-isothiocyanatobiphenyl,S=C=NC1=CC=C(C=C1)C2=CC=CC=C2,-4.85
4-amino-2-sulfobenzoic acid,NC1=CC(=C(C=C1)C(O)=O)[S](O)(=O)=O,-1.86
l-dopa cyclohexyl ester,NC(CC1=CC(=C(O)C=C1)O)C(=O)OC2CCCCC2,-1.27
"1,2,3,6,7,8-hexahydropyrene",C1CC2=CC=C3CCCC4=CC=C(C1)C2=C34,-5.96
"2,3,4,6-tetrachlorophenoxyacetic  acid",OC(=O)COC1=C(Cl)C(=C(Cl)C=C1Cl)Cl,-3.41
1-butanoylallopurinol,CCCC(=O)[N]1N=CC2=C1N=CNC2=O,-3.27
"2-amino-6,7-diethylpteridine",CCC1=NC2=C(N=C(N)N=C2)N=C1CC,-3.04
biphenyl-4-ylacetic acid;  4-biphenylacetic  acid,OC(=O)CC1=CC=C(C=C1)C2=CC=CC=C2,-3.73
"4-amino-6,7-diethylpteridine",CCC1=NC2=C(N=C1CC)C(=NC=N2)N,-2.93
"n1,n1-diethylsulfanilamide",CCN(CC)[S](=O)(=O)C1=CC=C(N)C=C1,-2.63
4-acetoxybiphenyl;  4-biphenylyl  acetate,CC(=O)OC1=CC=C(C=C1)C2=CC=CC=C2,-4.4
epristeride; skf-105657,CC(C)(C)NC(=O)C1CCC2C3CC=C4C=C(CCC4(C)C3CCC12C)C(O)=O,-8.76
amdinocillin; mecillinam,CC1(C)SC2C(N=CN3CCCCCC3)C(=O)N2C1C(O)=O,-4.5
"trifluridine;  alpha,alpha,alpha-trifluorothymidine;  2'-deoxy-5-(trifluoromethyl)uridine",OCC1OC(CC1O)N2C=C(C(=O)NC2=O)C(F)(F)F,-0.71
7-hydroxymethyltheophylline,CN1C(=O)N(C)C2=C([N](CO)C=N2)C1=O,-0.41
1-(hydroxymethyl)phenobarbital,CCC1(C(=O)NC(=O)N(CO)C1=O)C2=CC=CC=C2,-1.6
6-mercapto-(s-acetoxymethyl)purine,CC(=O)OCSC1=NC=NC2=C1N=C[NH]2,-2.15
"2,4,6,7-pteridinetetraone",O=C1NC(=O)C2=C(N1)NC(=O)C(=O)N2,-4.06
ranitidine,CNC(/NCCSCC1=CC=C(CN(C)C)O1)=C/[N+]([O-])=O,-2.5
prednisone,CC12CC(=O)C3C(CCC4=CC(=O)C=CC34C)C1CCC2(O)C(=O)CO,-3.48
vasicinone,OC1CCN2C(=O)C3=C(C=CC=C3)N=C12,-2.1
7-propyltheophylline,CCC[N]1C=NC2=C1C(=O)N(C)C(=O)N2C,0.02
"1,3-dihydro-4-ethyl-5-[(pyridin-4-yl)carbonyl]imidazol-2-one",CCC1=C(NC(=O)N1)C(=O)C2=CC=NC=C2,-1.99
"n,o-diacetyl-l-tyrosinamide",CC(=O)NC(CC1=CC=C(OC(C)=O)C=C1)C(N)=O,-1.9
metronidazole  phosphate,CC1=NC=C([N]1CCO[P](O)(O)=O)[N+]([O-])=O,-1.38
mepanipyrim;  2-anilino-4-methyl-6-(1-propynyl)pyrimidine,CC#CC1=NC(=NC(=C1)C)NC2=CC=CC=C2,-4.6
6-(s-propanoyloxymethyl)mercaptopurine,CCC(=O)OCSC1=NC=NC2=C1N=C[NH]2,-2.39
cyclacillin;  wy-4508;   6-(1-aminocyclohexanecarboxamido)penicillanic acid,CC1(C)SC2C(NC(=O)C3(N)CCCCC3)C(=O)N2C1C(O)=O,-1.04
n-(3-tolyl)anthranilic  acid;  2-(3-tolylamino)benzoic acid,CC1=CC=CC(=C1)NC2=CC=CC=C2C(O)=O,-5.06
"4-amino-6,7-diethyl-1h-pteridin-2-one;  4-amino-6,7-diethyl-2-hydroxypteridine",CCC1=NC2=C(N=C1CC)C(=NC(=O)N2)N,-3.55
"2-amino-6,7-diethyl-3h-pteridin-4-one;  2-amino-6,7-diethyl-4-hydroxypteridine",CCC1=NC2=C(N=C1CC)C(=O)NC(=N2)N,-4.28
"6,7-diethyl-1h-pteridine-2,4-dione;  ""2,4-dihydroxy-6,7-diethylpteridine""",CCC1=NC2=C(N=C1CC)C(=O)NC(=O)N2,-2.39
purin-6-ylmercaptomethyl butyrate; s-butanoyloxymethyl-6-mercaptopurine; butanoic acid 9h-purin-6-ylthiomethyl ester,CCCC(=O)OCSC1=NC=NC2=C1N=C[NH]2,-2.69
coniferin dihydrate,COC1=C(OC2OC(CO)C(O)C(O)C2O)C=CC(=C1)\C=C\CO,-1.87
n-(3-aminophenyl)anthranilic  acid;  3'-aminofenamic acid,NC1=CC=CC(=C1)NC2=CC=CC=C2C(O)=O,-4.09
pentachlorophenoxyacetic  acid,OC(=O)COC1=C(Cl)C(=C(Cl)C(=C1Cl)Cl)Cl,-3.75
"1,3,5,8-tetrachloronaphthalene",ClC1=CC2=C(C(=CC=C2Cl)Cl)C(=C1)Cl,-7.51
9-(2-hydroxy-3-nonyl)adenine,CCCCCCC(C(C)O)[N]1C=NC2=C1N=CN=C2N,-2.25
"myclozolin; 3-(3,5-dichlorophenyl)-5-methoxymethyl-5-methyl-oxazolidine-2,4-dione",COCC1(C)OC(=O)N(C1=O)C2=CC(=CC(=C2)Cl)Cl,-4.66
"rufinamide;  1-(2,6-difluorobenzyl)-1h-1,2,3-triazole-4-carboxamide",NC(=O)C1=C[N](CC2=C(F)C=CC=C2F)N=N1,-3.5
n-(3-hydroxyphenyl)anthranilic  acid;  3'-hydroxyfenamic acid,OC(=O)C1=CC=CC=C1NC2=CC(=CC=C2)O,-3.54
n-(2-benzoyloxyacetyl)proline methyl ester,COC(=O)C1CCCN1C(=O)COC(=O)C2=CC=CC=C2,-2.08
"quinclorac; 3,7-dichloro-8-carboxyquinoline; 3,7-dichloro-8-quinolinecarboxylic acid",OC(=O)C1=C(Cl)C=CC2=C1N=CC(=C2)Cl,-3.57
8-phenylpurine,[NH]1C2=C(N=CN=C2)N=C1C3=CC=CC=C3,-3.06
n-isonicotinoyl-n'-benzoylhydrazine;  n-benzoyl-n'-isonicotinoylhydrazine,O=C(NNC(=O)C1=CC=NC=C1)C2=CC=CC=C2,-2.54
"styphnic  acid; 1,3-dihydroxy-2,4,6-trinitrobenzene",OC1=C(C(=C(C=C1[N+]([O-])=O)[N+]([O-])=O)O)[N+]([O-])=O,-3.51
1-bromo-2-naphthyl  isothiocyanate;  1-bromo-2-isothiocyanatonaphthalene,BrC1=C(C=CC2=CC=CC=C12)N=C=S,-4.32
"n1,n4-diacetylsulfanilamide;  n4-acetylsulfacetamide",CC(=O)NC1=CC=C(C=C1)[S](=O)(=O)NC(C)=O,-2.78
fluenetil,FCCOC(=O)CC1=CC=C(C=C1)C2=CC=CC=C2,-5.01
isoxsuprine,CC(COC1=CC=CC=C1)NC(C)C(O)C2=CC=C(O)C=C2,-1.53
"n,n-(dicyclohexyl)acetamido  benzoate;  analog 29",O=C(COC(=O)C1=CC=CC=C1)N(C2CCCCC2)C3CCCCC3,-5.06
7-acetyltheophylline,CN1C(=O)N(C)C2=C([N](C=N2)C(C)=O)C1=O,-1.4
"1,5-diphenylthiocarbazone;  dithizone",S=C(NNC1=CC=CC=C1)N=NC2=CC=CC=C2,-6.61
s-valeroyloxymethyl-6-mercaptopurine;  s-pentanoyloxymethyl-6-mercaptopurine,CCCCC(=O)OCSC1=NC=NC2=C1N=C[NH]2,-3.1
3-benzoylphenyl  isothiocyanate; 3-isothiocyanatobenzophenone,O=C(C1=CC=CC=C1)C2=CC=CC(=C2)N=C=S,-5.4
n-(3-chlorophenyl)anthranilic  acid;  3'-chlorofenamic acid,OC(=O)C1=CC=CC=C1NC2=CC(=CC=C2)Cl,-5.3
tianafac,CC1=C(CC(O)=O)SC2=C1C=CC(=C2)Cl,-3.84
n-isonicotinoyl-n'-(phenylacetyl)hydrazine,O=C(CC1=CC=CC=C1)NNC(=O)C2=CC=NC=C2,-2.47
2-amino-7-naphthalenesulfonic  acid,NC1=CC2=C(C=C1)C=CC(=C2)[S](O)(=O)=O,-3.05
"2,4-dimethylthiazole-5-carboxanilide",CC1=NC(=C(S1)C(=O)NC2=CC=CC=C2)C,-1.73
"2,4',6-trichlorodiphenyl  ether",ClC1=CC=C(OC2=C(Cl)C=CC=C2Cl)C=C1,-5.91
6-(hexanoyloxymethylthio)purine,CCCCCC(=O)OCSC1=NC=NC2=C1N=C[NH]2,-3.63
1-amino-6-naphthalenesulfonic  acid;  5-amino-2-naphthalenesulfonic acid,NC1=CC=CC2=C1C=CC(=C2)[S](O)(=O)=O,-2.24
n-(3-anisyl)anthranilic  acid;   2-(3-methoxyphenylamino)benzoic acid,COC1=CC=CC(=C1)NC2=CC=CC=C2C(O)=O,-4.8
"2,4,6-trichlorodiphenyl  ether",ClC1=CC(=C(OC2=CC=CC=C2)C(=C1)Cl)Cl,-6.11
thebaine,COC1=CC=C2C3CC4=C5C(=C(OC)C=C4)OC1C25CCN3C,-2.66
1-amino-3-naphthalenesulfonic  acid,NC1=CC(=CC2=C1C=CC=C2)[S](O)(=O)=O,-2.34
"2,3,6-trichlorodiphenyl  ether",ClC1=CC=C(Cl)C(=C1Cl)OC2=CC=CC=C2,-5.95
thebainone,COC1=C(O)C2=C(CC3C4C=CC(=O)CC24CCN3C)C=C1,-1.87
n-isonicotinoyl-n'-(2-methylbenzoyl)hydrazine,CC1=C(C=CC=C1)C(=O)NNC(=O)C2=CC=NC=C2,-2.73
"2-ethyl-1-methyl-1,2,3,4-tetrahydro-2,4a,9-triazaanthracen-10-one; ethyl-methylpyridoquinazolone",CCN1CCN2C(=O)C3=C(C=CC=C3)N=C2C1C,-2.5
dinoseb  acetate,CCC(C)C1=C(OC(C)=O)C(=CC(=C1)[N+]([O-])=O)[N+]([O-])=O,-2.25
7-propanoyltheophylline,CCC(=O)[N]1C=NC2=C1C(=O)N(C)C(=O)N2C,-1.1
antazoline,C1CN=C(CN(CC2=CC=CC=C2)C3=CC=CC=C3)N1,-2.6
2-amino-5-naphthalenesulfonic  acid;  6-amino-1-naphthalenesulfonic acid,NC1=CC2=C(C=C1)C(=CC=C2)[S](O)(=O)=O,-2.75
dihydroequilenin,CC12CCC3=C(C=CC4=C3C=CC(=C4)O)C1CCC2O,-4.64
zileuton,CC(N(O)C(N)=O)C1=CC2=C(S1)C=CC=C2,-3.37
1-amino-5-naphthalenesulfonic  acid,NC1=CC=CC2=C1C=CC=C2[S](O)(=O)=O,-2.35
1-amino-4-naphthalenesulfonic  acid;  4-amino-1-naphthalenesulfonic acid,NC1=CC=C(C2=C1C=CC=C2)[S](O)(=O)=O,-2.91
"9-[2-(indol-3-yl)ethyl]-1-oxa-3-oxo-4,9-diazaspiro[5,5]undecane",O=C1COC2(CCN(CCC3=C[NH]C4=C3C=CC=C4)CC2)CN1,-2.99
"3-(1-aziridinyl)-4,6-dinitro-(n-ethyl)benzamide",CCNC(=O)C1=CC(=C(C=C1[N+]([O-])=O)[N+]([O-])=O)N2CC2,-3.13