Name,SMILES,Solubility
silver cyanide,[Ag+].[C-]#N,-6.1267351667
titanium(2+) ion dihydride,[Ti++].[H-].[H-],-5.6979525644
titanium(4+) ion bis(oxosilanebis(olate)),[Ti+4].[O-][Si]([O-])=O.[O-][Si]([O-])=O,-6.3011016483
"2,2-bis[(nonanoyloxy)methyl]butyl nonanoate",CCCCCCCCC(=O)OCC(CC)(COC(=O)CCCCCCCC)COC(=O)CCCCCCCC,-6.8410879515
"2,5-bis(1,1-dimethylpropyl)benzene-1,4-diol",CCC(C)(C)c1cc(O)c(cc1O)C(C)(C)CC,-6.495513117200001
diiron(3+) ion distrontium(2+) ion pentaoxidandiide,[O--].[O--].[O--].[O--].[O--].[Fe+3].[Fe+3].[Sr++].[Sr++],-6.6614873159000005
zirconium dihydride,[H-].[H-].[Zr++],-6.066512277899999
"10,13-dimethyl-17-(2-methyl-1,3-dioxolan-2-yl)-1,2,4,9,10,11,12,13,14,15,16,17-dodecahydrospiro[cyclopenta[a]phenanthrene-3,2'-[1,3]dioxolane]",CC1(OCCO1)C2CCC3C4=CC=C5CC6(CCC5(C)C4CCC23C)OCCO6,-6.7001197149000005
"[(1S,2R,5S)-5-methyl-2-propan-2-ylcyclohexyl] acetate",CC(C)[C@H]1CC[C@H](C)C[C@@H]1OC(C)=O,-4.0668869332
Ciaftalan zinc,[Zn++].[n-]1c2nc3[n-]c(nc4nc(nc5nc(nc1c6ccccc26)c7ccccc57)c8ccccc48)c9ccccc39,-6.9837209828
2-{[2-(acetyloxy)ethyl]({4-[(E)-2-(2-chloro-4-nitrophenyl)diazen-1-yl]-3-acetamidophenyl})amino}ethyl acetate,CC(=O)Nc1cc(ccc1N=Nc2ccc(cc2Cl)[N+]([O-])=O)N(CCOC(C)=O)CCOC(C)=O,-6.963714866599999
"(2R)-2-[(2R,3R,4S)-3,4-bis(octadecanoyloxy)oxolan-2-yl]-2-hydroxyethyl octadecanoate (2R)-2-[(2R,3R,4S)-3,4-dihydroxyoxolan-2-yl]-2-hydroxyethyl octadecanoate (2R)-2-hydroxy-2-[(2R,3R,4S)-3-hydroxy-4-(octadecanoyloxy)oxolan-2-yl]ethyl (9Z)-octadec-9-enoate",CCCCCCCCCCCCCCCCCC(=O)OCC(OC(=O)CCCCCCCCCCCCCCCCC)[C@H]1OC[C@@H](O)[C@@H]1OC(=O)CCCCCCCCCCCCCCCCC,-7.284910561499999
"(2R)-2-[(2R,3R,4S)-3,4-dihydroxyoxolan-2-yl]-2-hydroxyethyl hexadecanoate",CCCCCCCCCCCCCCCC(=O)OCC(O)[C@H]1OC[C@@H](O)[C@@H]1O,-6.9058735609
"1,2,4-tris(2-methyldodecyl) benzene-1,2,4-tricarboxylate",CC(C)CCCCCCCCCCOC(=O)c1ccc(C(=O)OCCCCCCCCCCC(C)C)c(c1)C(=O)OCCCCCCCCCCC(C)C,-7.180237159600001
"1,3-bis(heptanoyloxy)propan-2-yl heptanoate",CCCCCCC(=O)OCC(COC(=O)CCCCCC)OC(=O)CCCCCC,-6.9330922951
"1,3-bis[(12-hydroxyoctadecanoyl)oxy]propan-2-yl 12-hydroxyoctadecanoate",CCCCCCC(O)CCCCCCCCCCC(=O)OCC(COC(=O)CCCCCCCCCCC(O)CCCCCC)OC(=O)CCCCCCCCCCC(O)CCCCCC,-7.273925855599999
"1,3-bis[(2-ethylhexanoyl)oxy]propan-2-yl 2-ethylhexanoate",CCCCC(CC)C(=O)OCC(COC(=O)C(CC)CCCC)OC(=O)C(CC)CCCC,-6.97376589
"1,3-bis[(9Z)-octadec-9-enoyloxy]propan-2-yl (9Z)-octadec-9-enoate",CCCCCCCC\C=C/CCCCCCCC(=O)OCC(COC(=O)CCCCCCC\C=C/CCCCCCCC)OC(=O)CCCCCCC\C=C/CCCCCCCC,-7.2481955094
"1,6-bis(2-methylheptyl) hexanedioate",CC(C)CCCCCOC(=O)CCCCC(=O)OCCCCCC(C)C,-6.869904941000001
1-(octadecyloxy)octadecane,CCCCCCCCCCCCCCCCCCOCCCCCCCCCCCCCCCCCC,-7.0195208893
"2,2-bis[(heptanoyloxy)methyl]butyl heptanoate (non-preferred name)",CCCCCCC(=O)OCC(CC)(COC(=O)CCCCCC)COC(=O)CCCCCC,-6.97376589
"2,2-dimethyl-3-[(9Z)-octadec-9-enoyloxy]propyl (9Z)-octadec-9-enoate",CCCCCCCC\C=C/CCCCCCCC(=O)OCC(C)(C)COC(=O)CCCCCCC\C=C/CCCCCCCC,-7.102471438899999
"2,2-dimethylpropane-1,3-diyl dioctanoate",CCCCCCCC(=O)OCC(C)(C)COC(=O)CCCCCCC,-6.8531467823000005
"2-Butenedioic acid (E)-, di-C16-18-alkyl esters",CCCCCCCCCCCCCCCCCOC(=O)/C=C/C(=O)OCCCCCCCCCCCCCCCCC,-7.0740773653
2-bromo-N-[4-chloro-2-(2-chlorobenzoyl)phenyl]acetamide,Clc1ccc(NC(=O)CBr)c(c1)C(=O)c2ccccc2Cl,-6.8888082879
"2-ethyl-2-[[(1-oxoisooctadecyl)oxy]methyl]-1,3-propanediyl bis(isooctadecanoate)",CCC(COC(=O)CCCCCCCCCCCCCCC(C)C)(COC(=O)CCCCCCCCCCCCCCC(C)C)COC(=O)CCCCCCCCCCCCCCC(C)C,-7.2711824653
2-ethylhexyl octadecanoate,CCCCCCCCCCCCCCCCCC(=O)OCCCCCCCC,-6.8994921961
2-tetradecyloxirane,CCCCCCCCCCCCCCC1CO1,-6.6820204584
"3-(3,5-di-tert-butyl-4-hydroxyphenyl)-N'-[3-(3,5-di-tert-butyl-4-hydroxyphenyl)propanoyl]propanehydrazide",CC(C)(C)c1cc(CCC(=O)NNC(=O)CCc2cc(c(O)c(c2)C(C)(C)C)C(C)(C)C)cc(c1O)C(C)(C)C,-7.04359803
"3-(heptanoyloxy)-2,2-bis[(heptanoyloxy)methyl]propyl heptanoate",CCCCCCC(=O)OCC(COC(=O)CCCCCC)(COC(=O)CCCCCC)COC(=O)CCCCCC,-7.0680633512
"3-(oleoyloxy)-2,2-bis[(oleoyloxy)methyl]propyl octadec-9-enoate (non-preferred name)",CCCCCCCC\C=C/CCCCCCCC(=O)OCC(COC(=O)CCCCCCC\C=C/CCCCCCCC)(COC(=O)CCCCCCC\C=C/CCCCCCCC)COC(=O)CCCCCCC\C=C/CCCCCCCC,-7.378019409199999
"3-[(3-methylnonadecanoyl)oxy]-2,2-bis({[(3-methylnonadecanoyl)oxy]methyl})propyl 3-methylnonadecanoate",CC(C)CCCCCCCCCCCCCCC(=O)OCC(COC(=O)CCCCCCCCCCCCCCC(C)C)(COC(=O)CCCCCCCCCCCCCCC(C)C)COC(=O)CCCCCCCCCCCCCCC(C)C,-7.3809427734
"3-hydroxy-2,2-dimethylpropyl heptanoate",CCCCCCC(O)=O.CC(C)(CO)CO,-6.6708690081
3-hydroxy-2-(hydroxymethyl)-2-{[(9Z)-octadec-9-enoyloxy]methyl}propyl (9Z)-octadec-9-enoate,CCCCCCCC/C=C/CCCCCCCC(=O)OCC(CO)(CO)COC(=O)CCCCCCC\C=C\CCCCCCCC,-7.1238862525
3-methylbutyl dodecanoate,CCCCCCCCCCCC(=O)OCCC(C)C,-6.733128222
"Decanoic acid, mixed diesters with octanoic acid and propylene glycol",CCCCCCCCCC(O)=O.CCCCCCCC(O)=O.CC(O)CO,-6.8949548476
"Decanoic acid, mixed esters with octanoic acid and pentaerythritol",CCCCCCCCCC(O)=O.CCCCCCCC(O)=O.OCC(CO)(CO)CO,-6.9567723715
"Fatty acids, C5-9, hexaesters with dipentaerythritol",CCCCC(=O)OCC(CO)(CO)COCC(CO)(CO)CO,-6.8304564999
"N,N'-bis(2,6-diisopropylphenyl)carbodiimide",CC(C)c1cccc(C(C)C)c1N=C=Nc2c(cccc2C(C)C)C(C)C,-6.8604110817
butyl hexadecanoate butyl octadecanoate,CCCCCCCCCCCCCCCCCC(=O)OCCCC.CCCCCCCCCCCCCCCC(=O)OCCCC,-7.116029628200001
diisodecyl azelate,CC(C)CCCCCCCOC(=O)CCCCCCCC(=O)OCCCCCCCC(C)C,-6.971983320700001
ditetradecyl but-2-enedioate,CCCCCCCCCCCCCCOC(=O)\C=C\C(=O)OCCCCCCCCCCCCCC,-7.0076009975
docosanamide,CCCCCCCCCCCCCCCCCCCCCC(N)=O,-6.8320079078
docosyl docosanoate,CCCCCCCCCCCCCCCCCCCCCCOC(=O)CCCCCCCCCCCCCCCCCCCCC,-7.1133991412
dodecyl (9Z)-octadec-9-enoate,CCCCCCCCCCCCOC(=O)CCCCCCC\C=C\CCCCCCCC,-6.9550061959
ethyl (9Z)-hexadec-9-enoate ethyl (9Z)-octadec-9-enoate ethyl hexadecanoate ethyl tetradecanoate,CCCCCCCCCCCCCCCC(=O)OCC.CCCCCCCCCCCCCC(=O)OCC.CCCCCCCC\C=C/CCCCCCCC(=O)OCC.CCCCCC\C=C/CCCCCCCC(=O)OCC,-7.355606282999999
hexadecyl 2-ethylhexanoate,CCCCCCCCCCCCCCCCOC(=O)C(CC)CCCC,-6.867639521599999
hexyl dodecanoate,CCCCCCCCCCCC(=O)OCCCCCC,-6.7550878414
"isooctadecanoic acid, monoester with glycerol",CC(C)CCCCCCCCCCCCCCC(=O)OC(CO)CO,-6.855595468500001
magnesium diniobate,[O--].[O--].[O--].[O--].[O--].[O--].[O--].[Mg++].[Mg++].[Nb+5].[Nb+5],-6.8406266847
octadec-9-en-1-yl docos-13-enoate,CCCCCCCC\C=C/CCCCCCCCCCCC(=O)OCCCCCCCC\C=C/CCCCCCCC,-7.071179206900001
octadec-9-en-1-yl octadec-9-enoate,CCCCCCCCC\C=C/CCCCCCC(=O)OCCCCCCCC\C=C/CCCCCCCC,-7.0277066834
octyl octanoate,CCCCCCCCOC(=O)CCCCCCC,-6.709998828
tetradecyl octadec-9-enoate,CCCCCCCCCCCCCCOC(=O)CCCCCCC\C=C/CCCCCCCC,-6.9812258596
"tris(2-ethylhexyl) 2-acetoxypropane-1,2,3-tricarboxylate",CCCCC(CC)COC(=O)CC(CC(=O)OCC(CC)CCCC)(OC(C)=O)C(=O)OCC(CC)CCCC,-7.057520046900001
"2-(2H-1,2,3-benzotriazol-2-yl)-4,6-bis(2-phenylpropan-2-yl)phenol",CC(C)(c1ccccc1)c2cc(n3nc4ccccc4n3)c(O)c(c2)C(C)(C)c5ccccc5,-7.0488126213
"4,4',4''-butane-1,1,3-triyltris(2-tert-butyl-5-methylphenol)",CC(CC(c1cc(c(O)cc1C)C(C)(C)C)c2cc(c(O)cc2C)C(C)(C)C)c3cc(c(O)cc3C)C(C)(C)C,-7.1341930505
"4-[(E)-2-(5-cyano-2-hydroxy-1,4-dimethyl-6-oxo-1,6-dihydropyridin-3-yl)diazen-1-yl]-N-(2-ethylhexyl)benzamide",CCCCC(CC)CNC(=O)c1ccc(N\N=C2\C(=C(C#N)C(=O)N(C)C2=O)C)cc1,-7.0248108563
"5-[(E)-2-(3,4-dichlorophenyl)diazen-1-yl]-6-hydroxy-1,4-dimethyl-2-oxo-1,2-dihydropyridine-3-carbonitrile",CN1C(=O)C(=N/Nc2ccc(Cl)c(Cl)c2)/C(=C(C#N)C1=O)C,-6.9257837823
"tris[(3,5-di-tert-butyl-4-hydroxyphenyl)methyl]-1,3,5-triazinane-2,4,6-trione",CC(C)(C)c1cc(CN2C(=O)N(Cc3cc(c(O)c(c3)C(C)(C)C)C(C)(C)C)C(=O)N(Cc4cc(c(O)c(c4)C(C)(C)C)C(C)(C)C)C2=O)cc(c1O)C(C)(C)C,-7.2923086931
2-benzoyl-5-[3-(4-benzoyl-3-hydroxyphenoxy)-2-hydroxypropoxy]phenol,OC(COc1ccc(c(O)c1)C(=O)c2ccccc2)COc3ccc(c(O)c3)C(=O)c4ccccc4,-7.1387547034
(2-methyldodecyl)(tridecyl)amine; ditridecylamine,CCCCCCCCCCCCCNCCCCCCCCCCCCC.CCCCCCCCCCCCCNCC(C)CCCCCCCCCC,-7.4056684463
"(E)-N,6,6-trimethyl-N-(naphthalen-1-ylmethyl)hept-2-en-4-yn-1-amine",CN(C\C=C\C#CC(C)(C)C)Cc1cccc2ccccc12,-4.4645461779
2-methyl-2-[(2-methylundecan-2-yl)disulfanyl]undecane,CCCCCCCCCC(C)(C)SSC(C)(C)CCCCCCCCC,-7.1279660508000005
bis(2-ethylhexyl) carbonate,CCCCC(CC)COC(=O)OCC(CC)CCCC,-6.979936668500001
dibenzyl {[bis(benzyloxy)phosphoryl]oxy}phosphonate,O=[P](OCc1ccccc1)(OCc2ccccc2)O[P](=O)(OCc3ccccc3)OCc4ccccc4,-7.2540426772
4-(4-{2-[4-(4-aminophenoxy)phenyl]propan-2-yl}phenoxy)aniline,CC(C)(c1ccc(Oc2ccc(N)cc2)cc1)c3ccc(Oc4ccc(N)cc4)cc3,-7.191727219600001
(benzoyloxy)(hydroxy)alumanyl octadecanoate,CCCCCCCCCCCCCCCCCC(=O)O[Al](O)OC(=O)c1ccccc1,-7.253899897899999
"3-(Diethylamino)-7-oxo-7H-(1)benzopyrano(3',2':3,4)pyrido(1,2-a)benzimidazole-6-carbonitrile",CCN(CC)c1ccc2C=C3C(=C(C#N)C(=O)n4c5ccccc5nc34)Oc2c1,-7.2023327624
"N-{2-[(E)-2-(2,6-dicyano-4-methylphenyl)diazen-1-yl]-5-(diethylamino)phenyl}methanesulfonamide",CCN(CC)c1ccc(N=Nc2c(cc(C)cc2C#N)C#N)c(N[S](C)(=O)=O)c1,-7.2331050936
"methyl (9E,12E,15E)-octadeca-9,12,15-trienoate methyl (9Z)-octadec-9-enoate methyl (9Z,12Z)-octadeca-9,12-dienoate methyl hexadecanoate methyl octadecanoate",CCCCCCCCCCCCCCCCCC(=O)OC.CCCCCCCCCCCCCCCC(=O)OC.CCCCCCCC\C=C/CCCCCCCC(=O)OC.CCCCC/C=C\C\C=C/CCCCCCCC(=O)OC.CC/C=C/C/C=C/C/C=C/CCCCCCCC(=O)OC,-7.800359899299999
2-[[4-[(2-cyano-3-nitrophenyl)azo]-m-tolyl](2-acetoxyethyl)amino]ethyl acetate,CC(=O)OCCN(CCOC(C)=O)c1ccc(cc1)N=Nc2ccc(cc2C#N)[N+]([O-])=O,-7.300465045499999
"1-bromo-1,1,2,2,3,3,4,4,5,5,6,6,7,7,8,8,8-heptadecafluorooctane",FC(F)(F)C(F)(F)C(F)(F)C(F)(F)C(F)(F)C(F)(F)C(F)(F)C(F)(F)Br,-7.3970339946
3-[ethyl[4-[(4-nitrophenyl)azo]phenyl]amino]propiononitrile,CCN(CCC#N)c1ccc(cc1)N=Nc2ccc(cc2)[N+]([O-])=O,-7.208650928200001
Pigment red 149,Cc1cc(C)cc(c1)N2C(=O)c3ccc4c5ccc6C(=O)N(c7cc(C)cc(C)c7)C(=O)c8ccc(c9ccc(C2=O)c3c49)c5c68,-7.4761487948
ammonium iron(3+) hexakis(cyano-C)ferrate(4-),[NH4+].[Fe++].[Fe+3].[C-]#N.[C-]#N.[C-]#N.[C-]#N.[C-]#N.[C-]#N,-7.155088449400001
"Methyl 3-[n-ethyl-4-[(5-nitro-2,1-benzothiazol-3-yl)azo]anilino]propanoate",CCN(CCC(=O)OC)c1ccc(cc1)N=Nc2snc3ccc(cc23)[N+]([O-])=O,-7.315402454199999
tetradecyl tetradecanoate,CCCCCCCCCCCCCCOC(=O)CCCCCCCCCCCCC,-7.3271074817
"trans-4-ethyl-4'-(4-propylcyclohexyl)-1,1'-biphenyl",CCCC1CCC(CC1)c2ccc(cc2)c3ccc(CC)cc3,-7.1853905644000005
trixylyl phosphate,Cc1cc(C)cc(O[P](=O)(Oc2cc(C)cc(C)c2)Oc3cc(C)cc(C)c3)c1,-7.312230264299999
"beta,beta-carotene",CC1=C(\C=C\C(C)=C\C=C\C(C)=C\C=C\C=C(C)\C=C\C=C(C)\C=C\C2=C(C)CCCC2(C)C)C(C)(C)CCC1,-7.553792438099999
hafnium,[Hf],-7.1724326435000005
hafnium dioxide,[O--].[O--].[Hf+4],-7.2440460955
(13Z)-N-octadecyldocos-13-enamide,CCCCCCCCCCCCCCCCCCNC(=O)CCCCCCCCCCC\C=C/CCCCCCCC,-7.770909422999999
"(2R)-5-amino-2-(dibenzylamino)-1,6-diphenylhex-4-en-3-one",NC(Cc1ccccc1)=CC(=O)[C@@H](Cc2ccccc2)N(Cc3ccccc3)Cc4ccccc4,-7.6633437338
(Z)-N-octadec-9-enylhexadecan-1-amide,CCCCCCCCCCCCCCCC(=O)NCCCCCCCC\C=C/CCCCCCCC,-7.7040784145
"1H-Pyrazole-3-carboxylic acid, 4,5-dihydro-5-oxo-1-(4-sulfophenyl)-4-[(4-sulfophenyl)azo]-, reaction products with guanidine hydrochloride N,N'-bis(mixed Ph, tolyl and xylyl) derivs.",[H+].[Cl-].NC(N)=N.OC(=O)C1=NN(c2ccc(cc2)[S](O)(=O)=O)C(=O)C1N=Nc3ccc(cc3)[S](O)(=O)=O,-7.751246761699999
"3-(3,5-di-tert-butyl-4-hydroxyphenyl)-N-octadecylpropanamide",CCCCCCCCCCCCCCCCCCNC(=O)CCc1cc(c(O)c(c1)C(C)(C)C)C(C)(C)C,-7.724189002
"3-(3,5-di-tert-butyl-4-hydroxyphenyl)-N-{6-[3-(3,5-di-tert-butyl-4-hydroxyphenyl)propanamido]hexyl}propanamide",CC(C)(C)c1cc(CCC(=O)NCCCCCCNC(=O)CCc2cc(c(O)c(c2)C(C)(C)C)C(C)(C)C)cc(c1O)C(C)(C)C,-7.8041135239
4-chloro-2-(2-chlorobenzoyl)aniline,Nc1ccc(Cl)cc1C(=O)c2ccccc2Cl,-7.4250889383
4-{4-[(diphenoxyphosphoryl)oxy]phenyl}phenyl diphenyl phosphate,O=[P](Oc1ccccc1)(Oc2ccccc2)Oc3ccc(cc3)c4ccc(O[P](=O)(Oc5ccccc5)Oc6ccccc6)cc4,-7.813287357
Pigment red 178,O=C1N(c2ccc(cc2)N=Nc3ccccc3)C(=O)c4ccc5c6ccc7C(=O)N(c8ccc(cc8)N=Nc9ccccc9)C(=O)c%10ccc(c%11ccc1c4c5%11)c6c7%10,-7.8755092242
"N-(10-benzamido-6,13-diacetamido-2,9-diethoxy-5,12-dioxa-7,14-diazapentacen-3-yl)benzamide",CCOc1cc2N=C3C(=C4Oc5cc(NC(=O)c6ccccc6)c(OCC)cc5N=C4C(=C3Oc2cc1NC(=O)c7ccccc7)NC(C)=O)NC(C)=O,-7.861382650099999
N-octadecyloctadecanamide,CCCCCCCCCCCCCCCCCCNC(=O)CCCCCCCCCCCCCCCCC,-7.729153446000001
aluminium(3+) ion borate,[Al+3].[O-]B([O-])[O-],-6.9334417301
nitriloborane,B#N,-6.394784279
"4-({3,5-bis[(2,6-di-tert-butyl-4-hydroxyphenyl)methyl]-2,4,6-trimethylphenyl}methyl)-3,5-di-tert-butylphenol",Cc1c(Cc2cc(c(O)c(c2)C(C)(C)C)C(C)(C)C)c(C)c(Cc3cc(c(O)c(c3)C(C)(C)C)C(C)(C)C)c(C)c1Cc4cc(c(O)c(c4)C(C)(C)C)C(C)(C)C,-7.9814736459
4-(2-phenylpropan-2-yl)-N-[4-(2-phenylpropan-2-yl)phenyl]aniline,CC(C)(c1ccccc1)c2ccc(Nc3ccc(cc3)C(C)(C)c4ccccc4)cc2,-7.782007082100001
"2-[7-(diethylamino)-2-oxo-2H-chromen-3-yl]-1,3-benzoxazole-5-sulfonamide",CCN(CC)c1ccc2C=C(C(=O)Oc2c1)c3oc4ccc(cc4n3)[S](N)(=O)=O,-7.8310984133
Indanthrene,O=C1c2ccccc2C(=O)c3c4Nc5ccc6C(=O)c7ccccc7C(=O)c6c5Nc4ccc13,-7.946874563300001
3-{3-[(2-ethylhexyl)oxy]propyl}-1-{5-[({3-[(2-ethylhexyl)oxy]propyl}carbamoyl)amino]naphthalen-1-yl}urea,CCCCC(CC)COCCCNC(=O)Nc1cccc2c(NC(=O)NCCCOCC(CC)CCCC)cccc12,-8.0680715196
"2-[9-(1-{[3-(3-tert-butyl-4-hydroxy-5-methylphenyl)propanoyl]oxy}-2-methylpropan-2-yl)-2,4,8,10-tetraoxaspiro[5.5]undecan-3-yl]-2-methylpropyl 3-(3-tert-butyl-4-hydroxy-5-methylphenyl)propanoate",Cc1cc(CCC(=O)OCC(C)(C)[CH]2OC[C]3(CO2)CO[CH](OC3)C(C)(C)COC(=O)CCc4cc(C)c(O)c(c4)C(C)(C)C)cc(c1O)C(C)(C)C,-8.2677435641
"titanium(4+) ion bis(2,6-difluoro-3-(1H-pyrrol-1-yl)benzen-1-ide) bis(cyclopenta-2,4-dien-1-ide)",[Ti+4].Fc1ccc(N2C=C[C-]=C2)c(F)c1.Fc3ccc(N4C=C[C-]=C4)c(F)c3.[cH-]5cccc5.[cH-]6cccc6,-8.1257893916
"3-(1,3-benzothiazol-2-yl)-7-(diethylamino)-2-oxo-2H-chromene-4-carbonitrile",CCN(CC)c1ccc2c(OC(=O)C(=C2C#N)c3sc4ccccc4n3)c1,-8.0974343241
4-(2-{4-[2-(3-cyanophenyl)ethenyl]phenyl}ethenyl)benzonitrile,N#Cc1ccc(C=Cc2ccc(cc2)C=Cc3cccc(c3)C#N)cc1,-8.123728845599999
2-[(E)-2-(2-methoxy-4-{3-methoxy-4-[(E)-2-[2-oxo-1-(phenylcarbamoyl)propyl]diazen-1-yl]phenyl}phenyl)diazen-1-yl]-3-oxo-N-phenylbutanamide,COc1cc(ccc1N=NC(C(C)=O)C(=O)Nc2ccccc2)c3ccc(N=NC(C(C)=O)C(=O)Nc4ccccc4)c(OC)c3,-8.6167666964
tris(2-ethylhexyl) phosphate,CCCCC(CC)CO[P](=O)(OCC(CC)CCCC)OCC(CC)CCCC,-8.85998044
"2-(diphenyl-1,3,5-triazin-2-yl)-5-(hexyloxy)phenol",CCCCCCOc1ccc(c(O)c1)c2nc(nc(n2)c3ccccc3)c4ccccc4,-9.1518109699
"(1E,19E)-10,11-dioctylicosa-1,19-diene-1,20-diamine",CCCCCCCCCCCCCCCCCCCC\C=C\C\C=C\CCCCCCCCCCCNCCCCCCCCCCCCCCCCCCCC\C=C\C\C=C\CCCCCCCCCCC,-9.7071062552
"1,2-bis(2-propylheptyl) benzene-1,2-dicarboxylate",CCCCCC(CCC)COC(=O)c1ccccc1C(=O)OCC(CCC)CCCCC,-9.6499887292
"2,2-dichloro-1-(3-methyl-2,3-dihydro-1,4-benzoxazin-4-yl)ethanone",CC1COc2ccccc2N1C(=O)C(Cl)Cl,-3.8353901487
(4-fluorophenyl)(piperidin-4-yl)methanone hydrochloride,[H+].[Cl-].Fc1ccc(cc1)C(=O)C2CCNCC2,0.5890195686999999
"1,3-dihydroxypropan-2-one",OCC(=O)CO,1.0138642136
"disodium 4-[(E)-2-{2,4-dihydroxy-5-[(E)-2-(2-hydroxy-3,5-dinitrophenyl)diazen-1-yl]-3-[(E)-2-(4-nitrophenyl)diazen-1-yl]phenyl}diazen-1-yl]-5-hydroxynaphthalene-2,7-disulfonate",[Na+].[Na+].Oc1cc(cc2cc(cc(N=Nc3cc(N=Nc4cc(cc(c4O)[N+]([O-])=O)[N+]([O-])=O)c(O)c(N=Nc5ccc(cc5)[N+]([O-])=O)c3O)c12)[S]([O-])(=O)=O)[S]([O-])(=O)=O,-0.9675670249
"disodium 7,7'-(carbonyldiimino)bis[4-hydroxy-3-(phenylazo)naphthalene-2-sulphonate]",[Na+].[Na+].Oc1c2ccc(NC(=O)Nc3ccc4c(O)c(N=Nc5ccccc5)c(cc4c3)[S]([O-])(=O)=O)cc2cc(c1N=Nc6ccccc6)[S]([O-])(=O)=O,-1.8872466915
trimethyl(oxiran-2-ylmethyl)azanium chloride,[Cl-].C[N+](C)(C)CC1CO1,0.749634411
4-(propan-2-yl)benzene-1-sulfonic acid,CC(C)c1ccc(cc1)[S](O)(=O)=O,0.6127511139
disodium 2-[4-[[1-[[(2-methoxy-5-methyl-4-sulphonatophenyl)amino]carbonyl]-2-oxopropyl]azo]phenyl]-6-methylbenzothiazole-7-sulphonate,[Na+].[Na+].COc1cc(c(C)cc1NC(=O)C(N=Nc2ccc(cc2)c3sc4c(ccc(C)c4[S]([O-])(=O)=O)n3)C(C)=O)[S]([O-])(=O)=O,-0.9163461364
disodium 5-[(E)-2-(2-hydroxynaphthalen-1-yl)diazen-1-yl]-2-{4-[(E)-2-(2-hydroxynaphthalen-1-yl)diazen-1-yl]-2-sulfonatophenyl}benzene-1-sulfonate,[Na+].[Na+].[O-][S](=O)(=O)c1cc(N\N=C2/C(=O)C=Cc3ccccc23)ccc1c4ccc(N\N=C5/C(=O)C=Cc6ccccc56)cc4[S]([O-])(=O)=O,-1.8973139062
4-aminobenzonitrile,Nc1ccc(cc1)C#N,-1.1429743647
potassium 2-sulfanylacetate,[K+].[O-]C(=O)CS,0.7806710209000001
sodium 2-hydroxy-3-(prop-2-en-1-yloxy)propane-1-sulfonate,[Na+].OC(COCC=C)C[S]([O-])(=O)=O,0.5538399496
2-(carboxyoxy)ethyl hydrogen carbonate,O=C1OCCO1,0.9461910524
2-methylidenebutanedioic acid,OC(=O)CC(=C)C(O)=O,-0.2250282975
(2S)-2-amino-5-carbamimidamidopentanoic acid hydrochloride,[Cl-].N[C@@H](CCCN=C(N)N)C(O)=O.[H+],0.5397304724
sodium 3-[[4-(benzoylethylamino)-2-methylphenyl]azo]-4-hydroxynaphthalene-1-sulphonate,[Na+].CC(Nc1ccc(N\N=C\2C=C(c3ccccc3C2=O)[S]([O-])(=O)=O)c(C)c1)C(=O)c4ccccc4,-1.8129006218
2-(chloromethyl)oxirane,ClCC1CO1,-0.1473736792
trisodium 2-[bis(carboxylatomethyl)amino]acetate,[Na+].[Na+].[Na+].[O-]C(=O)CN(CC([O-])=O)CC([O-])=O,0.3961032361
"sodium 2,4-diamino-5-[(E)-2-(2-hydroxy-5-nitrophenyl)diazen-1-yl]benzene-1-sulfonate",[Na+].Nc1cc(N)c(cc1N=Nc2cc(ccc2O)[N+]([O-])=O)[S]([O-])(=O)=O,-0.7639420940999999
di(phenyl)methanimine,N=C(c1ccccc1)c2ccccc2,-2.7811280063
sodium 2-sulfanylacetate,[Na+].[O-]C(=O)CS,0.7273991488
"potassium 3,5,5-trimethylhexanoate",[K+].CC(CC([O-])=O)CC(C)(C)C,0.4851623717
"sodium 2-amino-4-nitrophenol benzene-1,3-diol 2-amino-4-nitro-6-sulfobenzen-1-olate iron sodium hydride",[Na].[Na+].[Fe].Nc1cc(ccc1O)[N+]([O-])=O.Nc2cc(cc(c2O)[S]([O-])(=O)=O)[N+]([O-])=O.Oc3cccc(O)c3,-0.9940566873
disodium 7-anilino-4-hydroxy-3-({2-methoxy-5-methyl-4-[(4-sulfonatophenyl)diazenyl]phenyl}diazenyl)naphthalene-2-sulfonate,[Na+].[Na+].COc1cc(N=Nc2ccc(cc2)[S]([O-])(=O)=O)c(C)cc1N\N=C/3C(=O)c4ccc(Nc5ccccc5)cc4C=C3[S]([O-])(=O)=O,-2.0454014742
"disodium 5-benzamido-4-hydroxy-3-[(E)-2-[2-(2-methylphenoxy)phenyl]diazen-1-yl]naphthalene-2,7-disulfonate",[Na+].[Na+].Cc1ccccc1Oc2ccccc2N\N=C/3C(=O)c4c(NC(=O)c5ccccc5)cc(cc4C=C3[S]([O-])(=O)=O)[S]([O-])(=O)=O,-2.0506714672
3-(morpholin-4-yl)propane-1-sulfonic acid,[O-][S](=O)(=O)CCC[NH+]1CCOCC1,0.4557825074
"octasodium 7,7'-[(2,2'-disulphonato[1,1'-biphenyl]-4,4'-diyl)bis[imino(6-chloro-1,3,5-triazine-4,2-diyl)imino[2-(carbamoylamino)]-4,1-phenylene]azo]]bis(naphthalene-1,3,6-trisulphonate)",[Na+].[Na+].[Na+].[Na+].[Na+].[Na+].[Na+].[Na+].NC(=O)Nc1cc(Nc2nc(Cl)nc(Nc3ccc(c4ccc(Nc5nc(Cl)nc(Nc6ccc(N=Nc7cc8c(cc(cc8[S]([O-])(=O)=O)[S]([O-])(=O)=O)cc7[S]([O-])(=O)=O)c(NC(N)=O)c6)n5)cc4[S]([O-])(=O)=O)c(c3)[S]([O-])(=O)=O)n2)ccc1N=Nc9cc%10c(cc(cc%10[S]([O-])(=O)=O)[S]([O-])(=O)=O)cc9[S]([O-])(=O)=O,-1.4981682805
lithium(1+) ion chloride,[Li+].[Cl-],1.1343979721
2-piperidin-2-ylethanol,OCC[C@@H]1CCCC[NH2+]1,0.6427483546
"2-amino-2-(hydroxymethyl)propane-1,3-diol hydrochloride",[H+].[Cl-].NC(CO)(CO)CO,0.5514149152000001
2-methylpropyl (2R)-2-hydroxypropanoate,CC(C)COC(=O)[C@@H](C)O,-0.4128573351
calcium 2-sulfanidylacetate,[Ca++].[O-]C(=O)CS,-0.3838981351
"3-(aminomethyl)-3,5,5-trimethylcyclohexan-1-ol",CC1(C)CC(O)CC(C)(CN)C1,0.488999371
sodium 2-methylprop-2-ene-1-sulfonate,[Na+].CC(=C)C[S]([O-])(=O)=O,0.5194215084
dipotassium O-[(sulfonatoperoxy)sulfonyl]oxidanidolate,[K+].[K+].[O-][S](=O)(=O)OO[S]([O-])(=O)=O,-0.6537301416
(2S)-2-hydroxy-3-(phenylamino)propane-1-sulfonate,O[C@@H](CNc1ccccc1)C[S]([O-])(=O)=O,0.1187844902
"2-[2-[4-[(2-cyanoethyl)methylamino]phenyl]vinyl]-1,3,3-trimethyl-3H-indolium dihydrogen phosphate",CN(CCC#N)c1ccc(cc1)C=CC2=[N+](C)c3ccccc3C2(C)C.O[P](O)([O-])=O,-0.9304018204
"sodium 3-[2-heptyl-3-(2-hydroxyethyl)-2,3-dihydro-1H-imidazol-1-yl]propanoate",[Na+].CCCCCCCC1N(CCO)C=CN1CCC([O-])=O,0.2127067575
tetrasodium 2-({2-[bis(carboxylatomethyl)amino]ethyl}(carboxylatomethyl)amino)acetate,[Na+].[Na+].[Na+].[Na+].[O-]C(=O)CN(CCN(CC([O-])=O)CC([O-])=O)CC([O-])=O,0.1189898767999999
chromium(3+) ion trifluoride,[F].[F].[F].[Cr],-0.3384166482
oxiran-2-ylmethyl 2-methylprop-2-enoate,CC(=C)C(=O)OCC1CO1,-0.4537890803
3-nitro-2H-pyrazole,[O-][N+](=O)c1[nH]ncc1,-1.2854728211
sodium bis[2-[[5-(aminosulphonyl)-2-hydroxyphenyl]azo]-3-oxo-N-phenylbutyramidato(2-)]cobaltate(1-),[Na+].[Co+3].CC(=O)/C(=N/Nc1cc(ccc1[O-])[S](N)(=O)=O)C(=O)[N-]c2ccccc2.CC(=O)/C(=N/Nc3cc(ccc3[O-])[S](N)(=O)=O)C(=O)[N-]c4ccccc4,-2.2084701124