Name,SMILES,Solubility
"2,2'-{propane-2,2-diylbis[(2,6-dibromo-4,1-phenylene)oxymethylene]}dioxirane",CC(C)(c1cc(Br)c(OCC2CO2)c(Br)c1)c3cc(Br)c(OCC4CO4)c(Br)c3,-7.3953018986
calcium 4-[(E)-2-(5-chloro-4-methyl-2-sulfonatophenyl)diazen-1-yl]-3-hydroxynaphthalene-2-carboxylate,[Ca++].Cc1cc(c(N\N=C\2C(=O)C(=Cc3ccccc23)C([O-])=O)cc1Cl)[S]([O-])(=O)=O,-6.2637704779
calcium 3-hydroxy-4-[(E)-2-(1-sulfonatonaphthalen-2-yl)diazen-1-yl]naphthalene-2-carboxylate,[Ca++].[O-]C(=O)C1=Cc2ccccc2/C(=N/Nc3ccc4ccccc4c3[S]([O-])(=O)=O)C1=O,-6.2793954063
N-(4-acetamidophenyl)-4-[(5-carbamoyl-2-chlorophenyl)diazenyl]-3-hydroxy-2-naphthamide,CC(=O)Nc1ccc(NC(=O)C2=Cc3ccccc3C(=N/Nc4cc(ccc4Cl)C(N)=O)/C2=O)cc1,-7.304443806799999
ethyl 2-cyanoprop-2-enoate,CCOC(=O)C(=C)C#N,-6.717139790499999
zinc bis(12-hydroxyoctadecanoate),[Zn++].CCCCCCC(O)CCCCCCCCCCC([O-])=O.CCCCCCC(O)CCCCCCCCCCC([O-])=O,-5.4548481286
"sodium; benzene-1,4-diamine; methanolate; methyl 2,3,4,5-tetrachloro-6-cyanobenzoate",[Na+].C[O-].COC(=O)c1c(Cl)c(Cl)c(Cl)c(Cl)c1C#N.Nc2ccc(N)cc2,-6.3058678101
"1-amino-4-(4-amino-9,10-dioxo-9,10-dihydroanthracen-1-yl)-9,10-dihydroanthracene-9,10-dione",Nc1ccc(c2ccc(N)c3C(=O)c4ccccc4C(=O)c23)c5C(=O)c6ccccc6C(=O)c15,-6.293710562799999
2-ethylhexyl (2-methylbutan-2-yl)oxy carbonate,CCCCC(CC)COC(=O)OOC(C)(C)CC,-6.088238680599999
"3-ethoxy-1,1,1,2,3,4,4,5,5,6,6,6-dodecafluoro-2-(trifluoromethyl)hexane",CCOC(F)(C(F)(F)C(F)(F)C(F)(F)F)C(F)(C(F)(F)F)C(F)(F)F,-7.2887340171
strontium bis{5-chloro-2-[(2-hydroxy-1-naphthyl)diazenyl]-4-methylbenzenesulfonate},[Sr++].Cc1cc(N\N=C\2C(=O)C=Cc3ccccc23)c(cc1Cl)[S]([O-])(=O)=O.Cc4cc(N\N=C\5C(=O)C=Cc6ccccc56)c(cc4Cl)[S]([O-])(=O)=O,-7.6228592843
"octadecyl 3-(3,5-di-tert-butyl-4-hydroxyphenyl)propanoate",CCCCCCCCCCCCCCCCCCOC(=O)CCc1cc(c(O)c(c1)C(C)(C)C)C(C)(C)C,-8.2701498682
"2-[(E)-2-(2,5-dichloro-4-{2,5-dichloro-4-[(E)-2-{1-[(2,4-dimethylphenyl)carbamoyl]-2-oxopropyl}diazen-1-yl]phenyl}phenyl)diazen-1-yl]-N-(2,4-dimethylphenyl)-3-oxobutanamide",CC(=O)C(N=Nc1cc(Cl)c(cc1Cl)c2cc(Cl)c(cc2Cl)N=NC(C(C)=O)C(=O)Nc3ccc(C)cc3C)C(=O)Nc4ccc(C)cc4C,-8.4626870474
2-[(E)-2-(2-chloro-4-{3-chloro-4-[(E)-2-{1-[(2-methoxyphenyl)carbamoyl]-2-oxopropyl}diazen-1-yl]phenyl}phenyl)diazen-1-yl]-N-(2-methoxyphenyl)-3-oxobutanamide,COc1ccccc1NC(=O)C(N=Nc2ccc(cc2Cl)c3ccc(N=NC(C(C)=O)C(=O)Nc4ccccc4OC)c(Cl)c3)C(C)=O,-8.4235961938
"2-[(4-{(4-anilinophenyl)[4-(phenylimino)cyclohexa-2,5-dien-1-ylidene]methyl}phenyl)amino]benzenesulfonic acid",O[S](=O)(=O)c1ccccc1N=C2C=CC(C=C2)=C(c3ccc(Nc4ccccc4)cc3)c5ccc(Nc6ccccc6)cc5,-8.3771050883
"4,11-diamino-2-[3-(2-methoxyethoxy)propyl]-1H-naphtho[2,3-f]isoindole-1,3,5,10(2H)-tetrone",COCCOCCCN1C(=O)c2c(N)c3C(=O)c4ccccc4C(=O)c3c(N)c2C1=O,-8.2650486602
"1,4-diamino-2,3-diphenoxy-9,10-dihydroanthracene-9,10-dione",Nc1c(Oc2ccccc2)c(Oc3ccccc3)c(N)c4C(=O)c5ccccc5C(=O)c14,-8.2716565948
"diethyl 4,4'-[(3,3'-dichlorobiphenyl-4,4'-diyl)didiazene-2,1-diyl]bis(5-oxo-1-phenyl-4,5-dihydro-1H-pyrazole-3-carboxylate)",CCOC(=O)C1=NN(C(=O)C1N=Nc2ccc(cc2Cl)c3ccc(N=NC4C(=O)N(N=C4C(=O)OCC)c5ccccc5)c(Cl)c3)c6ccccc6,-8.5265601286
hydrogen selenide,[Se],-6.5751878449
"2-[(E)-2-(2-chloro-4-{3-chloro-4-[(E)-2-{1-[(2,4-dimethylphenyl)carbamoyl]-2-oxopropyl}diazen-1-yl]phenyl}phenyl)diazen-1-yl]-N-(2,4-dimethylphenyl)-3-oxobutanamide; N-(4-chloro-2,5-dimethoxyphenyl)-2-[(E)-2-(2-chloro-4-{3-chloro-4-[(E)-2-{1-[(2,4-dimethylphenyl)carbamoyl]-2-oxopropyl}diazen-1-yl]phenyl}phenyl)diazen-1-yl]-3-oxobutanamide; N-(4-chloro-2,5-dimethoxyphenyl)-2-[(E)-2-(2-chloro-4-{3-chloro-4-[(E)-2-{1-[(4-chloro-2,5-dimethoxyphenyl)carbamoyl]-2-oxopropyl}diazen-1-yl]phenyl}phenyl)diazen-1-yl]-3-oxobutanamide",COc1cc(NC(=O)C(N=Nc2ccc(cc2Cl)c3ccc(N=NC(C(C)=O)C(=O)Nc4ccc(C)cc4C)c(Cl)c3)C(C)=O)c(OC)cc1Cl.COc5cc(NC(=O)C(N=Nc6ccc(cc6Cl)c7ccc(N=NC(C(C)=O)C(=O)Nc8cc(OC)c(Cl)cc8OC)c(Cl)c7)C(C)=O)c(OC)cc5Cl.CC(=O)C(N=Nc9ccc(cc9Cl)c%10ccc(N=NC(C(C)=O)C(=O)Nc%11ccc(C)cc%11C)c(Cl)c%10)C(=O)Nc%12ccc(C)cc%12C,-9.052340862
8-methylnonyl methacrylate,CC(C)CCCCCCCOC(=O)C(C)=C,-6.0559466089
2-[(E)-2-(4-chloro-2-nitrophenyl)diazen-1-yl]-N-(2-methoxyphenyl)-3-oxobutanamide,COc1ccccc1NC(=O)C(N=Nc2ccc(Cl)cc2[N+]([O-])=O)C(C)=O,-7.3063783536
telluroxocadmium,[Cd]=[Te],-7.1014793549
barium(2+) ion bis(5-chloro-4-ethyl-2-[(E)-2-(2-hydroxynaphthalen-1-yl)diazen-1-yl]benzene-1-sulfonate),[Ba++].CCc1cc(N\N=C/2C(=O)C=Cc3ccccc23)c(cc1Cl)[S]([O-])(=O)=O.CCc4cc(N\N=C/5C(=O)C=Cc6ccccc56)c(cc4Cl)[S]([O-])(=O)=O,-5.692860180299999
"4-[(E)-2-[2-chloro-5-(trifluoromethyl)phenyl]diazen-1-yl]-N-(2,5-dichloro-4-{4-[(E)-2-[2-chloro-5-(trifluoromethyl)phenyl]diazen-1-yl]-3-hydroxynaphthalene-2-amido}phenyl)-3-hydroxynaphthalene-2-carboxamide",FC(F)(F)c1ccc(Cl)c(N\N=C2/C(=O)C(=Cc3ccccc23)C(=O)Nc4cc(Cl)c(NC(=O)C5=Cc6ccccc6C(=N/Nc7cc(ccc7Cl)C(F)(F)F)\C5=O)cc4Cl)c1,-7.6922433716
"dibenzylbenzene, ar-methyl derivative",Cc1cccc(Cc2ccccc2)c1Cc3ccccc3,-7.179920248999999
Cobaltous carbonate,[Co++].[O-]C([O-])=O,-4.8375365922
"2-[(E)-2-{2-oxo-1-[(2-oxo-2,3-dihydro-1H-1,3-benzodiazol-5-yl)carbamoyl]propyl}diazen-1-yl]benzoic acid",CC(=O)C(N=Nc1ccccc1C(O)=O)C(=O)Nc2ccc3NC(=O)Nc3c2,-7.330901470700001
"2,2'-[ethylenebis(oxyphenyl-2,1-eneazo)]bis[N-(2,3-dihydro-2-oxo-1H-benzimidazol-5-yl)-3-oxobutyramide",CC(=O)C(N=Nc1ccccc1OCCOc2ccccc2N=NC(C(C)=O)C(=O)Nc3ccc4NC(=O)Nc4c3)C(=O)Nc5ccc6NC(=O)Nc6c5,-7.634485568300001
"4-[(E)-2-(2,5-dichlorophenyl)diazen-1-yl]-3-hydroxy-N-(2-oxo-2,3-dihydro-1H-1,3-benzodiazol-5-yl)naphthalene-2-carboxamide",Clc1ccc(Cl)c(N\N=C2/C(=O)C(=Cc3ccccc23)C(=O)Nc4ccc5NC(=O)Nc5c4)c1,-7.461800321799999
calcium bis(4-[(E)-2-{1-[(2-chlorophenyl)carbamoyl]-2-oxopropyl}diazen-1-yl]-3-nitrobenzene-1-sulfonate),[Ca++].CC(=O)C(N=Nc1ccc(cc1[N+]([O-])=O)[S]([O-])(=O)=O)C(=O)Nc2ccccc2Cl,-5.4514607628
iron,[Fe],-5.5190975907
cyclododecane,C1CCCCCCCCCCC1,-7.0220260604
hexyl 2-[4-(diethylamino)-2-hydroxybenzoyl]benzoate,CCCCCCOC(=O)c1ccccc1C(=O)c2ccc(cc2O)N(CC)CC,-7.3952335385
borane,[B],-4.8435743389
Cobaltous 2-ethylhexanoate,[Co++].CCCCC(CC)C([O-])=O.CCCCC(CC)C([O-])=O,-5.347977516
"2,3-dibutyl 1,4,5,6,7,7-hexachlorobicyclo[2.2.1]hept-5-ene-2,3-dicarboxylate",CCCCOC(=O)C1C(C(=O)OCCCC)C2(Cl)C(=C(Cl)C1(Cl)C2(Cl)Cl)Cl,-7.5095589026
Solvent orange 60,O=C1N2c3cccc4cccc(N=C2c5ccccc15)c34,-7.255740326000001
"2,9-dichloro-5,7,12,14-tetrahydro-5,12-diazapentacene-7,14-dione",Clc1ccc2Nc3cc4C(=O)c5cc(Cl)ccc5Nc4cc3C(=O)c2c1,-7.4198053963
"3-oxo-N-(2-oxo-2,3-dihydro-1H-1,3-benzodiazol-5-yl)-2-[(E)-2-[2-(trifluoromethyl)phenyl]diazen-1-yl]butanamide",CC(=O)C(N=Nc1ccccc1C(F)(F)F)C(=O)Nc2ccc3NC(=O)Nc3c2,-7.455526832999999
"bis(2-chloroethyl) 3,3'-[(2,5-dimethyl-p-phenylene)bis[iminocarbonyl(2-hydroxy-1,3-naphthylene)azo]]di-p-toluate",Cc1ccc(cc1N\N=C2\C(=O)C(=Cc3ccccc23)C(=O)Nc4cc(C)c(NC(=O)C5=Cc6ccccc6C(=N/Nc7c(C)cccc7C(=O)OCCCl)/C5=O)cc4C)C(=O)OCCCl,-7.814241028500001
"2-[(E)-2-(4-chloro-2-nitrophenyl)diazen-1-yl]-3-oxo-N-(2-oxo-2,3-dihydro-1H-1,3-benzodiazol-5-yl)butanamide",CC(=O)C(N=Nc1ccc(Cl)cc1[N+]([O-])=O)C(=O)Nc2ccc3NC(=O)Nc3c2,-7.473779876699999
10-[(2-methylprop-2-enoyl)oxy]decyl 2-methylprop-2-enoate,CC(=C)C(=O)OCCCCCCCCCCOC(=O)C(C)=C,-6.3502060506
"4,11-dichloro-5,7,12,14-tetrahydro-5,12-diazapentacene-7,14-dione",Clc1cccc2C(=O)c3cc4Nc5c(Cl)cccc5C(=O)c4cc3Nc12,-6.4573217576
2-[(E)-2-(4-methyl-2-nitrophenyl)diazen-1-yl]-3-oxo-N-phenylbutanamide,CC(=O)C(N=Nc1ccc(C)cc1[N+]([O-])=O)C(=O)Nc2ccccc2,-7.4179683662
decanoyl decaneperoxoate,CCCCCCCCCC(=O)OOC(=O)CCCCCCCCC,-6.4497523604
4-[(4-chloro-2-nitrophenyl)diazenyl]-3-hydroxy-N-(2-methylphenyl)-2-naphthamide,Cc1ccccc1NC(=O)C2=Cc3ccccc3C(=N/Nc4ccc(Cl)cc4[N+]([O-])=O)/C2=O,-7.5632144901
"[1,3-dihydro-5,6-bis[[(2-hydroxy-1-naphthyl)methylene]amino]-2H-benzimidazol-2-onato(2-)-N5,N6,O5,O6]nickel",[Ni++].[O-]c1ccc2ccccc2c1C=Nc3cc4NC(=O)Nc4cc3N=Cc5c([O-])ccc6ccccc56,-7.6266942296
oxygen(-2) anion; platinum(+4) cation,[O--].[O--].[Pt+4],-7.2627495503
neodymium,[Nd],-7.0799044677
oxocobalt,O=[Co],-5.798391069
"calcium bis(3-(3-{2-[(1Z)-3-[(4-methoxyphenyl)carbamoyl]-2-oxo-1,2-dihydronaphthalen-1-ylidene]hydrazin-1-yl}-4-methylbenzamido)benzene-1-sulfonate)",[Ca++].COc1ccc(NC(=O)C2=Cc3ccccc3/C(=N/Nc4cc(ccc4C)C(=O)Nc5cccc(c5)[S]([O-])(=O)=O)C2=O)cc1.COc6ccc(NC(=O)C7=Cc8ccccc8/C(=N/Nc9cc(ccc9C)C(=O)Nc%10cccc(c%10)[S]([O-])(=O)=O)C7=O)cc6,-7.050931182699999
4-[(E)-2-(4-carbamoylphenyl)diazen-1-yl]-N-(2-ethoxyphenyl)-3-hydroxynaphthalene-2-carboxamide,CCOc1ccccc1NC(=O)C2=Cc3ccccc3C(=N/Nc4ccc(cc4)C(N)=O)\C2=O,-7.581973548400001
3-hydroxy-4-[(2-methyl-5-nitrophenyl)diazenyl]-N-phenyl-2-naphthamide,Cc1ccc(cc1N\N=C2/C(=O)C(=Cc3ccccc23)C(=O)Nc4ccccc4)[N+]([O-])=O,-7.5579677799
"2-[(E)-2-(4-nitrophenyl)diazen-1-yl]-3-oxo-N-(2-oxo-2,3-dihydro-1H-1,3-benzodiazol-5-yl)butanamide",CC(=O)C(N=Nc1ccc(cc1)[N+]([O-])=O)C(=O)Nc2ccc3NC(=O)Nc3c2,-7.5255403409
"N-(3-chloro-4-{4-[(E)-2-(2,5-dichlorophenyl)diazen-1-yl]-3-hydroxynaphthalene-2-amido}phenyl)-4-[(E)-2-(2,5-dichlorophenyl)diazen-1-yl]-3-hydroxynaphthalene-2-carboxamide",Clc1ccc(Cl)c(N\N=C2\C(=O)C(=Cc3ccccc23)C(=O)Nc4ccc(NC(=O)C5=Cc6ccccc6C(=N/Nc7cc(Cl)ccc7Cl)\C5=O)c(Cl)c4)c1,-7.869298263099999
12-[(2-methylprop-2-enoyl)oxy]dodecyl 2-methylprop-2-enoate,CC(=C)C(=O)OCCCCCCCCCCCCOC(=O)C(C)=C,-7.484220297999999
"N-(4-carbamoylphenyl)-4-[(E)-2-{2-oxo-1-[(2-oxo-2,3-dihydro-1H-1,3-benzodiazol-5-yl)carbamoyl]propyl}diazen-1-yl]benzamide",CC(=O)C(N=Nc1ccc(cc1)C(=O)Nc2ccc(cc2)C(N)=O)C(=O)Nc3ccc4NC(=O)Nc4c3,-6.672808805599999
"2,2'-[(3,3'-dichlorobiphenyl-4,4'-diyl)didiazene-2,1-diyl]bis[N-(4-ethoxyphenyl)-3-oxobutanamide]",CCOc1ccc(NC(=O)C(N=Nc2ccc(cc2Cl)c3ccc(N=NC(C(C)=O)C(=O)Nc4ccc(OCC)cc4)c(Cl)c3)C(C)=O)cc1,-7.830582616799999
1-({[(piperidine-1-carbothioyldisulfanyl)disulfanyl]disulfanyl}methanethioyl)piperidine,S=C(SSSSSSC(=S)N1CCCCC1)N2CCCCC2,-7.6317322062
"5,7,12,14-tetrahydro-5,12-diazapentacene-7,14-dione",O=C1c2ccccc2Nc3cc4C(=O)c5ccccc5Nc4cc13,-7.481773695499999
4-chloro-N-(3-chloro-2-methylphenyl)-3-[(E)-2-{1-[(5-chloro-4-{2-[(E)-2-{2-chloro-5-[(3-chloro-2-methylphenyl)carbamoyl]phenyl}diazen-1-yl]-3-oxobutanamido}-2-methylphenyl)carbamoyl]-2-oxopropyl}diazen-1-yl]benzamide,CC(=O)C(N=Nc1cc(ccc1Cl)C(=O)Nc2cccc(Cl)c2C)C(=O)Nc3cc(Cl)c(NC(=O)C(N=Nc4cc(ccc4Cl)C(=O)Nc5cccc(Cl)c5C)C(C)=O)cc3C,-7.9717711074
N-(5-chloro-2-methylphenyl)-3-hydroxy-4-[(E)-2-[2-methoxy-5-(phenylcarbamoyl)phenyl]diazen-1-yl]naphthalene-2-carboxamide,COc1ccc(cc1N\N=C2/C(=O)C(=Cc3ccccc23)C(=O)Nc4cc(Cl)ccc4C)C(=O)Nc5ccccc5,-7.7520707385
"1,2-Benzenedicarboxylic acid, benzyl C7-9-branched and linear alkyl esters",CCCCCCCCOC(=O)c1ccccc1C(=O)OCc2ccccc2,-8.2876520693
2-[(E)-2-(4-methoxy-2-nitrophenyl)diazen-1-yl]-N-(2-methoxyphenyl)-3-oxobutanamide,COc1ccc(N=NC(C(C)=O)C(=O)Nc2ccccc2OC)c(c1)[N+]([O-])=O,-8.3082430527
"3-hydroxy-4-[(E)-2-[2-methoxy-5-(phenylcarbamoyl)phenyl]diazen-1-yl]-N-(2-oxo-2,3-dihydro-1H-1,3-benzodiazol-5-yl)naphthalene-2-carboxamide",COc1ccc(cc1N\N=C2/C(=O)C(=Cc3ccccc23)C(=O)Nc4ccc5NC(=O)Nc5c4)C(=O)Nc6ccccc6,-8.4790833317
"N-[(1,1,3,3-tetramethylbutyl)phenyl]naphthalen-1-amine",CC(C)(C)CC(C)(C)N(c1ccccc1)c2cccc3ccccc23,-8.2900385416
"4-[(E)-2-(2,5-dichlorophenyl)diazen-1-yl]-3-hydroxy-N-(2-methoxyphenyl)naphthalene-2-carboxamide",COc1ccccc1NC(=O)C2=Cc3ccccc3C(=N/Nc4cc(Cl)ccc4Cl)\C2=O,-8.4645677849
"2-{[(2-{[3-(3,5-di-tert-butyl-4-hydroxyphenyl)propanoyl]oxy}ethyl)carbamoyl]formamido}ethyl 3-(3,5-di-tert-butyl-4-hydroxyphenyl)propanoate",CC(C)(C)c1cc(CCC(=O)OCCNC(=O)C(=O)NCCOC(=O)CCc2cc(c(O)c(c2)C(C)(C)C)C(C)(C)C)cc(c1O)C(C)(C)C,-8.6670954079
isohexadecyl 12-[(1-oxooctadecyl)oxy]octadecanoate,CCCCCCCCCCCCCCCCCC(=O)OC(CCCCCC)CCCCCCCCCCC(=O)OCCCCCCCCCCCCCC(C)C,-8.755372465299999
"(2R)-2,5,7,8-tetramethyl-2-[(4R,8R)-4,8,12-trimethyltridecyl]-3,4-dihydro-2H-1-benzopyran-6-ol",CC(C)CCC[C@@H](C)CCC[C@@H](C)CCC[C@]1(C)CCc2c(C)c(O)c(C)c(C)c2O1,-8.520248661
"(2R)-2,5,7,8-tetramethyl-2-[(4R,8R)-4,8,12-trimethyltridecyl]-3,4-dihydro-2H-1-benzopyran-6-ol; (2R)-2,5,8-trimethyl-2-[(4R,8R)-4,8,12-trimethyltridecyl]-3,4-dihydro-2H-1-benzopyran-6-ol; (2R)-2,7,8-trimethyl-2-[(4R,8R)-4,8,12-trimethyltridecyl]-3,4-dihydro-2H-1-benzopyran-6-ol; (2R)-2,8-dimethyl-2-[(4R,8R)-4,8,12-trimethyltridecyl]-3,4-dihydro-2H-1-benzopyran-6-ol",CC(C)CCCC(C)CCCC(C)CCCC1(C)CCc2cc(O)c(C)c(C)c2O1,-8.5058697258
2-(hydroxymethyl)-2-[(oleoyloxy)methyl]butyl octadec-9-enoate (non-preferred name),CCCCCCCC\C=C/CCCCCCCC(=O)OCC(CC)(CO)COC(=O)CCCCCCC\C=C/CCCCCCCC,-8.7211960386
oxopalladium,[O--].[Pd++],-8.0625429623
2-[(E)-2-(2-chloro-4-{3-chloro-4-[(E)-2-{1-[(2-methylphenyl)carbamoyl]-2-oxopropyl}diazen-1-yl]phenyl}phenyl)diazen-1-yl]-N-(2-methylphenyl)-3-oxobutanamide,CC(=O)C(N=Nc1ccc(cc1Cl)c2ccc(N=NC(C(C)=O)C(=O)Nc3ccccc3C)c(Cl)c2)C(=O)Nc4ccccc4C,-8.9148440789
"4-[(E)-2-(1-butyl-5-cyano-2-hydroxy-4-methyl-6-oxo-1,6-dihydropyridin-3-yl)diazen-1-yl]-N-(2-ethylhexyl)benzene-1-sulfonamide",CCCCC(CC)CN[S](=O)(=O)c1ccc(cc1)N=NC2=C(O)N(CCCC)C(=O)C(=C2C)C#N,-8.797313426799999
stannanethione,S=[SnH2],-8.4059550501
"4-[(E)-2-(2,3-dichlorophenyl)diazen-1-yl]-N-(5-{4-[(E)-2-(2,3-dichlorophenyl)diazen-1-yl]-3-hydroxynaphthalene-2-amido}naphthalen-1-yl)-3-hydroxynaphthalene-2-carboxamide",Clc1cccc(N\N=C2/C(=O)C(=Cc3ccccc23)C(=O)Nc4cccc5c(NC(=O)C6=Cc7ccccc7C(=N/Nc8cccc(Cl)c8Cl)\C6=O)cccc45)c1Cl,-9.227651248
dibismuth(3+) ion trisulfanediide,[S--].[S--].[S--].[Bi+3].[Bi+3],-9.0983152748
2-{2-[2-chloro-4-(3-chloro-4-{2-[2-oxo-1-(phenylcarbamoyl)propyl]diazen-1-yl}phenyl)phenyl]diazen-1-yl}-3-oxo-N-phenylbutanamide,CC(=O)C(N=Nc1ccc(cc1Cl)c2ccc(N=NC(C(C)=O)C(=O)Nc3ccccc3)c(Cl)c2)C(=O)Nc4ccccc4,-9.1969385027
"1,1,2,2,3,3,3-heptafluoro-N,N-bis(heptafluoropropyl)propan-1-amine",FC(F)(F)C(F)(F)C(F)(F)N(C(F)(F)C(F)(F)C(F)(F)F)C(F)(F)C(F)(F)C(F)(F)F,-9.1359660934
"2-[(E)-2-(2-chloro-4-{3-chloro-4-[(E)-2-{1-[(2,4-dimethylphenyl)carbamoyl]-2-oxopropyl}diazen-1-yl]phenyl}phenyl)diazen-1-yl]-N-(2,4-dimethylphenyl)-3-oxobutanamide",CC(=O)C(N=Nc1ccc(cc1Cl)c2ccc(N=NC(C(C)=O)C(=O)Nc3ccc(C)cc3C)c(Cl)c2)C(=O)Nc4ccc(C)cc4C,-9.2920103659
"2-[(1-amino-4-hydroxy-9,10-dioxo-9,10-dihydroanthracen-2-yl)oxy]ethyl ethyl carbonate",CCOC(=O)OCCOc1cc(O)c2C(=O)c3ccccc3C(=O)c2c1N,-9.2195295624
tetratrimethylsilyl silicate,C[Si](C)(C)O[Si](O[Si](C)(C)C)(O[Si](C)(C)C)O[Si](C)(C)C,-9.4071737246
"1,3-dibromo-5-{2-[3,5-dibromo-4-(2,3-dibromopropoxy)phenyl]propan-2-yl}-2-(2,3-dibromopropoxy)benzene",CC(C)(c1cc(Br)c(OCC(Br)CBr)c(Br)c1)c2cc(Br)c(OCC(Br)CBr)c(Br)c2,-9.8164351053
iridium(3+),[Ir],-9.9827617991
"1,4-bis(16-methylheptadecyl) 2-hydroxybutanedioate",CC(C)CCCCCCCCCCCCCCCOC(=O)CC(O)C(=O)OCCCCCCCCCCCCCCCC(C)C,-7.992627598799999
Cobaltous stearate,[Co++].CCCCCCCCCCCCCCCCCC([O-])=O.CCCCCCCCCCCCCCCCCC([O-])=O,-5.2733987051
decyl 2-ethylhexanoate,CCCCCCCCCCOC(=O)C(CC)CCCC,-8.1939864578
"3,5,5-trimethylhexyl 3,5,5-trimethylhexanoate",CC(CCOC(=O)CC(C)CC(C)(C)C)CC(C)(C)C,-8.2779665867
tetradecyl octadecanoate,CCCCCCCCCCCCCCCCCC(=O)OCCCCCCCCCCCCCC,-8.983050454099999
"2,5,7,10,11,14-hexaoxa-1,6-distibabicyclo[4.4.4]tetradecane",C1CO[Sb]2OCCO[Sb](O1)OCCO2,-9.0249738719
"1-phenyldecane-1,3-dione",CCCCCCCC(=O)CC(=O)c1ccccc1,-5.8836966949
oxo[(oxochromio)oxy]chromium; oxo[(oxoferrio)oxy]iron; oxo[(oxomanganio)oxy]manganese,O=[Cr]O[Cr]=O.O=[Mn]O[Mn]=O.O=[Fe]O[Fe]=O,-8.972710915599999
silicon,[Si],-5.6631600565
"6-chloro-2-(6-chloro-4-methyl-3-oxo-2,3-dihydro-1-benzothiophen-2-ylidene)-4-methyl-2,3-dihydro-1-benzothiophen-3-one",Cc1cc(Cl)cc2SC(/C(=O)c12)=C/3Sc4cc(Cl)cc(C)c4C3=O,-7.9319837821
1-[(E)-2-(4-methoxy-2-nitrophenyl)diazen-1-yl]naphthalen-2-ol,COc1ccc(N\N=C2/C(=O)C=Cc3ccccc23)c(c1)[N+]([O-])=O,-7.9911025111
2-{[2-hydroxy-5-methyl-3-(1-methylcyclohexyl)phenyl]methyl}-4-methyl-6-(1-methylcyclohexyl)phenol,Cc1cc(Cc2cc(C)cc(c2O)C3(C)CCCCC3)c(O)c(c1)C4(C)CCCCC4,-8.146786216599999
disulfanylidenemolybdenum,S.[Mo],-5.8129901866
"4,10-dibromonaphtho[7,8,1,2,3-nopqr]tetraphene-6,12-dione",Brc1cc2C(=O)c3cccc4c(Br)cc5C(=O)c6cccc1c6c2c5c34,-7.6331990421
"5-[(E)-2-(6-methyl-2-oxo-2,3-dihydro-1H-1,3-benzodiazol-5-yl)diazen-1-yl]-1,3-diazinane-2,4,6-trione",CC1=CC2=NC(=O)N=C2C=C1NNC3C(=O)NC(=O)NC3=O,-6.4891402338
"4-methyl-2,6-bis[(4-methylphenyl)amino]-5-{2-[2-(trifluoromethyl)phenyl]diazen-1-yl}pyridine-3-carbonitrile",Cc1ccc(Nc2nc(Nc3ccc(C)cc3)c(C#N)c(C)c2N=Nc4ccccc4C(F)(F)F)cc1,-7.7171571443
C.i. Pigment Red 179,CN1C(=O)c2ccc3c4ccc5C(=O)N(C)C(=O)c6ccc(c7ccc(C1=O)c2c37)c4c56,-7.7185099927
"2-(3-Methoxypropyl)-9(or 10)-methylbenzimidazo(2,1-b)benzo(lmn)(3,8)phenanthroline-1,3,6(2H)-trione",COCCCN1C(=O)c2ccc3C(=O)n4c5ccc(C)cc5nc4c6ccc(C1=O)c2c36,-6.7715099068
"N,N'-phenylene-1,4-bis[4-[(2,5-dichlorophenyl)azo]-3-hydroxynaphthalene-2-carboxamide]",Oc1cc2ccccc2cc1C(=O)N=NNc3cc(Cl)c(cc3Cl)c4ccc(cc4)c5cc(Cl)c(NN=NC(=O)c6cc7ccccc7cc6O)cc5Cl,-8.0871707055
"Fatty acids, C5-9, tetraesters with pentaerythritol",CCCCCCCOCC(COCCCCCCC)(COCCCCCCC)COCCCCCCC,-7.94522478
zirconium dioxide,O=[Zr]=O,-6.350325563999999
"N-{5-[bis(prop-2-en-1-yl)amino]-2-[(E)-2-(2-bromo-4,6-dinitrophenyl)diazen-1-yl]-4-methoxyphenyl}acetamide",COc1cc(N=Nc2c(Br)cc(cc2[N+]([O-])=O)[N+]([O-])=O)c(NC(C)=O)cc1N(CC=C)CC=C,-7.0093328393
"2,2'-biindole-3,3'(1H,1'H)-dione",O=C1\C(Nc2ccccc12)=C/3Nc4ccccc4C3=O,-6.7197753001
propan-2-yl tetradecanoate,CCCCCCCCCCCCCC(=O)OC(C)C,-6.733128222
bis(nonylphenyl)amine,CCCCCCCCCc1cccc(Nc2cccc(CCCCCCCCC)c2)c1,-7.9260469847
"ethyl 2-cyano-3,3-diphenylprop-2-enoate",CCOC(=O)C(C#N)=C(c1ccccc1)c2ccccc2,-7.7440158853
"hexane-1,6-diyl bis[3-(3,5-di-tert-butyl-4-hydroxyphenyl)propanoate]",CC(C)(C)c1cc(CCC(=O)OCCCCCCOC(=O)CCc2cc(c(O)c(c2)C(C)(C)C)C(C)(C)C)cc(c1O)C(C)(C)C,-8.1064832759
"tris(2,4-di-tert-butylphenyl) phosphite",CC(C)(C)c1ccc(OP(Oc2ccc(cc2C(C)(C)C)C(C)(C)C)Oc3ccc(cc3C(C)(C)C)C(C)(C)C)c(c1)C(C)(C)C,-8.1118919859
methyl 3-[[4-(2-bromo-6-chloro-4-nitrophenyl)diazenylphenyl]-(3-methoxy-3-oxopropyl)amino]propanoate,COC(=O)CCN(CCC(=O)OC)c1ccc(cc1)N=Nc2c(Cl)cc(cc2Br)[N+]([O-])=O,-7.1002216252
4-[[2-methoxy-4-[(4-nitrophenyl)azo]phenyl]azo]phenol,COc1cc(ccc1NN=C2C=CC(=O)C=C2)N=Nc3ccc(cc3)[N+]([O-])=O,-6.9639720065
"2-[N-(2-cyanoethyl)-4-[(2,6-dichloro-4-nitrophenyl)azo]anilino]ethyl acetate",CC(=O)OCCN(CCC#N)c1ccc(cc1)N=Nc2c(Cl)cc(cc2Cl)[N+]([O-])=O,-7.0514245951
2-tert-butyl-4-[1-(5-tert-butyl-4-hydroxy-2-methylphenyl)butyl]-5-methylphenol,CCCC(c1cc(c(O)cc1C)C(C)(C)C)c2cc(c(O)cc2C)C(C)(C)C,-7.9806713528
octadecyl 3-{[3-(octadecyloxy)-3-oxopropyl]sulfanyl}propanoate,CCCCCCCCCCCCCCCCCCOC(=O)CCSCCC(=O)OCCCCCCCCCCCCCCCCCC,-8.2324757883
Tin,[Sn],-7.472430972100001
"1,4-bis(2-ethylhexyl) (2Z)-but-2-enedioate",CCCCC(CC)COC(=O)\C=C/C(=O)OCC(CC)CCCC,-6.9758197173
"N-{2-[(E)-2-(2-chloro-4,6-dinitrophenyl)diazen-1-yl]-5-(diethylamino)phenyl}acetamide",CCN(CC)c1ccc(N=Nc2c(Cl)cc(cc2[N+]([O-])=O)[N+]([O-])=O)c(NC(C)=O)c1,-7.1158852536
"sodium; methanolate; 2-methylbenzene-1,3-diamine; methyl 2,3,4,5-tetrachloro-6-cyanobenzoate",[Na+].C[O-].COC(=O)c1c(Cl)c(Cl)c(Cl)c(Cl)c1C#N.Cc2c(N)cccc2N,-7.1716670448
2-[-N-(2-cyanoethyl)-4-[(p-nitrophenyl)azo]anilino]ethyl benzoate,[O-][N+](=O)c1ccc(cc1)N=Nc2ccc(cc2)N(CCOC(=O)c3ccccc3)CCC#N,-7.1697361359
"N-{2-[(E)-2-(2,6-dicyano-4-nitrophenyl)diazen-1-yl]-5-(diethylamino)phenyl}acetamide",CCN(CC)c1ccc(N=Nc2c(cc(cc2C#N)[N+]([O-])=O)C#N)c(NC(C)=O)c1,-8.1027530485
2-methylpropyl dodecanoate,CCCCCCCCCCCC(=O)OCC(C)C,-7.9318475776
3-methylbutyl octadec-9-enoate,CCCCCCCC\C=C\CCCCCCCC(=O)OCCC(C)C,-8.0701647483
nonafluorobutane-1-sulfonyl fluoride,FC(F)(F)C(F)(F)C(F)(F)C(F)(F)[S](F)(=O)=O,-6.0423843487
"1,1'-methylenebis(4-fluorobenzene)",Fc1ccc(Cc2ccc(F)cc2)cc1,-6.912156136599999
"3,3'-[(2-chloro-5-methyl-p-phenylene)bis[imino(1-acetyl-2-oxoethylene)azo]]bis[4-chloro-N-[2-(4-chlorophenoxy)-5-(trifluoromethyl)phenyl]benzamide]",CC(=O)C(N=Nc1cc(ccc1Cl)C(=O)Nc2cc(ccc2Oc3ccc(Cl)cc3)C(F)(F)F)C(=O)Nc4cc(Cl)c(NC(=O)C(N=Nc5cc(ccc5Cl)C(=O)Nc6cc(ccc6Oc7ccc(Cl)cc7)C(F)(F)F)C(C)=O)cc4C,-7.6916832495
"methyl 3-({4-[(E)-2-(2,4-dinitrophenyl)diazen-1-yl]-3-acetamidophenyl}(3-methoxy-3-oxopropyl)amino)propanoate",COC(=O)CCN(CCC(=O)OC)c1ccc(N=Nc2ccc(cc2[N+]([O-])=O)[N+]([O-])=O)c(NC(C)=O)c1,-7.3328313355