Name,SMILES,Solubility
"2-naphthol, 3-(2-imidazolin-2-yl)-",Oc1cc2ccccc2cc1C3=NCCN3,-3.3015
"phenol, 2-iodo-4-methyl-",Cc1ccc(O)c(I)c1,-2.4662
"2-propenoic acid, 3-[2-(acetyloxy)phenyl]-, (e)-",CC(=O)Oc1ccccc1\C=C\C(O)=O,-3.1559
"benzoic acid, 3-chloro-4-hydroxy-, ethyl ester",CCOC(=O)c1ccc(O)c(Cl)c1,-3.2232
"l-glutamic acid, n-l-leucyl-",CC(C)C[C@H](N)C(=O)N[C@@H](CCC(O)=O)C(O)=O,-0.8969
"butanamide, n-methyl-n-nitroso-",CCCC(=O)N(C)N=O,-1.5347
mecoprop-p,C[C@@H](Oc1ccc(Cl)cc1C)C(O)=O,-2.3972
"2-propenamide, 2-chloro-",NC(=O)C(Cl)=C,-0.2104
cyclopropyl vinyl ether,C=COC1CC1,-1.1001
"hydantoin, 5-methyl-5-(2-piperidinoethyl)-",CC1(CCN2CCCCC2)NC(=O)NC1=O,-0.8213
"-d-glucofuranose, 1,2:5,6-bis-o-(1-methylethyli",CC(=O)O[C@H]1[C@H](O[C@@H]2OC(C)(C)O[C@H]12)[C@H]3COC(C)(C)O3,-1.5229
"2-thiazolecarboxylic acid, hydrazide",NNC(=O)c1sccn1,-0.6787
methomyl,CNC(=O)O\N=C(/C)SC,-0.4466
"3,4,5-trichloroveratrole",COc1cc(Cl)c(Cl)c(Cl)c1OC,-4.3701
4-chloroguaiacol,COc1cc(Cl)ccc1O,-1.5013
"benzenesulfonamide, 4-amino-n-1,3,4-thiadiazol-2",Nc1ccc(cc1)[S](=O)(=O)Nc2scnn2,-2.8684
"2-furanacetic acid, tetrahydro-2-methyl-5-oxo-,",CCOC(=O)CC1(C)CCC(=O)O1,-0.7472
"succinic acid, 2-ethyl-3-phenyl-",CCC(C(C(O)=O)c1ccccc1)C(O)=O,-2.3256
"benzamide, 2,4-dichloro-n-hydroxy-n-phenyl-",ON(c1ccccc1)C(=O)c2ccc(Cl)cc2Cl,-3.6723
"pteridine, 2-(methylthio)-",CSc1ncc2nccnc2n1,-1.7561
"barbituric acid, 5-bromo-5-isopropyl-",CC(C)C1(Br)C(=O)NC(=O)NC1=O,-2.2088
"1,4-benzenedisulfonamide",N[S](=O)(=O)c1ccc(cc1)[S](N)(=O)=O,-2.5283
"barbituric acid,5,5-dibutyl-",CCCCC1(CCCC)C(=O)NC(=O)NC1=O,-2.8756
8-cinnolinol,Oc1cccc2ccnnc12,-2.4089
"8-cinnolinol, 4-methyl-",Cc1cnnc2c(O)cccc12,-2.6783
5-quinoxalinol,Oc1cccc2nccnc12,-1.3468
"1,6-naphthyridin-8-ol",Oc1cncc2cccnc12,-1.6576
"glycine, n-[n-(n-carbamoylglycyl)glycyl]-",NC(=O)NCC(=O)NCC(=O)NCC(O)=O,-1.3505
"butanoic acid, 2-(ethylamino)-",CCNC(CC)C(O)=O,-0.4189
"benzeneacetic acid, .alpha.-hydroxy-, (s)-",O[C@H](C(O)=O)c1ccccc1,0.1592
"glycine, n-[n-(aminocarbonyl)glycyl]-",NC(=O)NCC(=O)NCC(O)=O,-0.8996
isopropyl t-butyl ether,CC(C)OC(C)(C)C,-2.3662
"3,5-dinitro-l-tyrosine",N[C@@H](Cc1cc(c(O)c(c1)[N+]([O-])=O)[N+]([O-])=O)C(O)=O,-1.5125
"acetone, 4-(p-nitrophenyl)semicarbazone",CC(C)=NNC(=O)Nc1ccc(cc1)[N+]([O-])=O,-3.5952
"1,3,5-benzenetricarboxylic acid, 2-methoxy-",COc1c(cc(cc1C(O)=O)C(O)=O)C(O)=O,-1.5354
"1(3h)-isobenzofuranone, 3-ethyl-",CCC1OC(=O)c2ccccc12,-1.747
metolazone,CC1Nc2cc(Cl)c(cc2C(=O)N1c3ccccc3C)[S](N)(=O)=O,-3.783
"1,2,4-triazin-3-amine, 5,6-dimethyl-",Cc1nnc(N)nc1C,-1.0939
bensultap,CN(C)C(CS[S](=O)(=O)c1ccccc1)CS[S](=O)(=O)c2ccccc2,-5.76
"butanedinitrile, ethyl-",CCC(CC#N)C#N,-0.6916
amicetin,CC1OC(CCC1OC2OC(C)C(C(O)C2O)N(C)C)N3C=CC(=NC3=O)NC(=O)c4ccc(NC(=O)C(C)(N)CO)cc4,-2.4904
"1,2-benzenedicarboxylic acid, mono(2-hydroxyethy",OCCOC(=O)c1ccccc1C(O)=O,-1.4825
"phenol, 4-amino-2,6-dinitro-",Nc1cc(c(O)c(c1)[N+]([O-])=O)[N+]([O-])=O,-2.3853
fentiazac,OC(=O)Cc1sc(nc1c2ccc(Cl)cc2)c3ccccc3,-4.9644
"1-pentene, 5-isothiocyanato-",C=CCCCN=C=S,-2.9004
"[1,1'-biphenyl]-3-ol, 4-nitro-",Oc1cc(ccc1[N+]([O-])=O)c2ccccc2,-3.8557
"benzaldehyde, 4-hydroxy-3-methoxy-2-methyl-",COc1c(C)c(C=O)ccc1O,-1.3755
"benzoic acid, 4-amino-, 1-methylethyl ester",CC(C)OC(=O)c1ccc(N)cc1,-2.6099
"1-propanamine, 3-(trimethylsilyl)-",C[Si](C)(C)CCCN,-1.9509
"hydrazinecarboximidamide, n-nitro-",NNC(=N)N[N+]([O-])=O,-1.6458
"benzenemethanol, 4-iodo-",OCc1ccc(I)cc1,-2.7460000000000004
"1,2-cyclohexanedione, 3-methyl-, dioxime",CC1CCCC(=NO)C1=NO,-1.5916
"1,2-cyclohexanedione, 4-methyl-, dioxime",CC1CCC(=C(C1)NO)N=O,-1.6622
"1,2-cyclohexanedione, 4-isopropyl-, dioxime",CC(C)C1CCC(=NO)C(C1)=NO,-2.3903
"l-alanine, n-(aminocarbonyl)-",C[C@H](NC(N)=O)C([O-])=O,-0.9656
"benz(a)anthracene-4,5-dimethylene",Cc1cccc2c3cc4ccccc4cc3cc(C)c12,-7.9743
"1,2-cyclodecanedione, dioxime",ON=C1CCCCCCCCC1=NO,-2.5813
"2-cyclopenta[c]pyran-4-carboxylic acid, 1-(-d-g",COC(=O)C1=CO[C@@H](O[C@@H]2O[C@H](CO)[C@@H](O)[C@H](O)[C@H]2O)[C@@H]3[C@@H](C)[C@@H](O)C[C@H]13,-0.5911
"ethanesulfinothioic acid, s-ethyl ester",CCS[S](=O)CC,-0.0993
albuterol,CC(C)(C)NCC(O)c1ccc(O)c(CO)c1,-1.2298
"2h-pyran, tetrahydro-2-methoxy-6-methyl-",COC1CCCC(C)O1,-0.5921
"2-oxabicyclo[2.2.2]octan-6-one, 1,3,3-trimethyl-",CC1(C)OC2(C)CCC1CC2=O,-0.9249
methabenzthiazuron,CNC(=O)N(C)c1sc2ccccc2n1,-3.5741
"3-heptanol, 2-methyl-",CCCCC(O)C(C)C,-1.8122
"3-heptanol, 5-methyl-",CCC(C)CC(O)CC,-1.8602
ethylisopentylcarbinol,CCC(O)CCC(C)C,-1.9272
"2,5-selenophenedicarboxylic acid, tetrahydro-",OC(=O)C1CCC([Se]1)C(O)=O,-0.545
isoxathion,CCO[P](=S)(OCC)Oc1cc(on1)c2ccccc2,-5.2172
"butanoic acid, 3-methyl-, 4-nitrophenyl ester",CC(C)CC(=O)Oc1ccc(cc1)[N+]([O-])=O,-4.3945
"benzenemethanol, 2-bromo-",OCc1ccccc1Br,-2.158
"acetamide, n- 4- (2-pyridinylamino)sulfonyl phen",CC(=O)Nc1ccc(cc1)[S](=O)(=O)Nc2ccccn2,-3.7162
"2,4-pteridinediamine, 6,7-diethyl-",CCc1nc2nc(N)nc(N)c2nc1CC,-3.2671
"pteridine, 2-(methylamino)-",CNc1ncc2nccnc2n1,-1.7124
"nicotinamide, n-(6-methoxy-8-quinolyl)-",COc1cc(NC(=O)c2cccnc2)c3ncccc3c1,-4.4461
polyoxin b,N[C@@H]([C@H](O)[C@@H](O)COC(N)=O)C(=O)N[C@@H]([C@H]1O[C@H](C(O)C1O)N2C=C(CO)C(=O)NC2=O)C(O)=O,0.2946
5-chlorovanillin,COc1cc(C=O)cc(Cl)c1O,-2.8747
"1(3h)-isobenzofuranone, 6-bromo-",Brc1ccc2COC(=O)c2c1,-2.6472
"3,5-dimethyl-4-heptanol",CCC(C)C(O)C(C)CC,-2.5108
"phenol, 2,4-dichloro-6-(phenylmethyl)-",Oc1c(Cl)cc(Cl)cc1Cc2ccccc2,-4.6399
"1(3h)-isobenzofuranone, 6-chloro-",Clc1ccc2COC(=O)c2c1,-2.4817
"1-naphthoic acid, 4-ethoxy-",CCOc1ccc(C(O)=O)c2ccccc12,-4.1122
"1,2-butanediol, 2-methyl-1-phenyl-",CCC(C)(O)C(O)c1ccccc1,-1.7244
"d-leucine, n-acetyl-",CC(C)C[C@@H](NC(C)=O)C(O)=O,-1.3301
"dl-serine, o-methyl-",COC[C@H](N)C(O)=O,0.6524
"4(1h)-pyrimidinone, 5-bromo-",BrC1=CN=CNC1=O,-0.4471
"3-pyridinecarbonitrile, 6-chloro-1,2-dihydro-4-h",OC1=C(C#N)C(=O)C=C(Cl)N1,-1.2319
"propanoic acid, 3-hydroxy-2-methyl-, 2,3,3a,4,5,",CC(CO)C(=O)O[C@H]1CC(=C/CCC(=C/[C@H]2OC(=O)C(=C)[C@H]12)/CO)/C,-2.2436
ethyl isopropylamine,CCNC(C)C,1.0597
"1,2,3,4-tetrachloronaphthalene",Clc1c(Cl)c(Cl)c2ccccc2c1Cl,-7.7954
"benzoic acid, 4-amino-, dodecyl ester",CCCCCCCCCCCCOC(=O)c1ccc(N)cc1,-7.8
"2-furaldehyde, 5-nitro-, 2-pentylsemicarbazone",CCCCCN(N=Cc1oc(cc1)[N+]([O-])=O)C(N)=O,-2.8971
"a-(2,2,2-trichloroethyl)styrene",ClC(Cl)(Cl)CC(=C)c1ccccc1,-4.2822
cinmetacin,COc1ccc2n(c(C)c(CC(O)=O)c2c1)C(=O)\C=C\c3ccccc3,-5.5433
diethyl pentyl phosphate,CCCCCO[P](=O)(OCC)OCC,-1.4757
"2-butanol, 3,3-dimethyl-, (.+-.)-",CC(O)C(C)(C)C,-0.6238
"3-octanol, (.+-.)-",CCCCCC(O)CC,-2.0171
"phosphorodithioic acid, s-[2-(ethylsulfonyl)ethy",CC[S](=O)(=O)CCS[P](=S)(OC)OC,-2.5415
tripropylene glycol methyl ether,COCC(C)OCC(C)OCC(C)O,0.6855
"acetamide, n-(4-propoxyphenyl)-",CCCOc1ccc(NC(C)=O)cc1,-3.0557
"2-bornanone, 3-(hydroxymethyl)-",CC1(C)C2CCC1(C)C(=O)C2CO,-0.215
"urea, 1-methyl-1-o-tolyl-",CN(C(N)=O)c1ccccc1C,-0.4032
1-hexyl nitrate,CCCCCCO[N+]([O-])=O,-3.1265
"urea, 1-ethyl-1-o-tolyl-",CCN(C(N)=O)c1ccccc1C,-0.2096
"5-pyrimidineacetic acid, 1,2,3,4-tetrahydro-2,4-",OC(=O)CC1=CNC(=O)NC1=O,-1.6287
"1,2-pentanediol, 1-phenyl-2-propyl-",CCCC(O)(CCC)C(O)c1ccccc1,-2.648
"1,2-hexanediol, 2-butyl-1phenyl-",CCCCC(O)(CCCC)C(O)c1ccccc1,-3.2225
"pyridine, 2,3,4,6-tetramethyl-",Cc1cc(C)c(C)c(C)n1,-1.3069
digoxin,C[C@H]1O[C@H](C[C@H](O)[C@@H]1O)O[C@H]2[C@@H](O)C[C@@H](O[C@@H]2C)O[C@H]3[C@@H](O)C[C@@H](O[C@@H]3C)O[C@H]4CC[C@@]5(C)[C@H](CC[C@@H]6[C@@H]5C[C@@H](O)[C@]7(C)[C@H](CC[C@]67O)C8=CC(=O)OC8)C4,-4.0811
chloraniformethane,Clc1ccc(NC(NC=O)C(Cl)(Cl)Cl)cc1Cl,-3.3228
"1,2,4-thiadiazolidine-3,5-dithione",S=C1NSC(=S)N1,-1.7618
tonalid,CC1CC(C)(C)c2cc(C(C)=O)c(C)cc2C1(C)C,-5.3154
"1,3-benzenedicarboxylic acid, 2-nitro-",OC(=O)c1cccc(C(O)=O)c1[N+]([O-])=O,-1.9901
prynachlor,CC(C#C)N(C(=O)CCl)c1ccccc1,-2.6468
"2-butanol, 3-chloro-2-methyl-",CC(Cl)C(C)(C)O,-0.2926
"4,6-dinitro-biphenyl-3-ol",Oc1cc(c2ccccc2)c(cc1[N+]([O-])=O)[N+]([O-])=O,-4.4611
fosthietan,CCO[P](=O)(OCC)N=C1SCS1,-0.6835
2-(thiocyanatemethylthio)benzothiazole,N#CSCSc1sc2ccccc2n1,-3.2803
"4-heptanol, 2-methyl-",CCCC(O)CC(C)C,-1.9079
"benzoic acid, 5-bromo-2-chloro-",[O-]C(=O)c1cc(Br)ccc1Cl,-1.952
"2h-1,4-benzoxazin-3(4h)-one, 4-methyl-",CN1C(=O)COc2ccccc12,-2.1445
"acetic acid, 1-(3,4-dichlorophenyl)-2,2,2-trichl",CC(=O)OC(c1ccc(Cl)c(Cl)c1)C(Cl)(Cl)Cl,-3.8279
di-sec-butanolamine,CCC(O)CNCC(O)CC,0.7925
isopentyl nitrate,CCCC(C)O[N+]([O-])=O,-2.4809
cartap hydrochloride,[Cl-].C[NH+](C)C(CSC(N)=O)CSC(N)=O,-0.1364
"1,2,3-thiadiazole-4-carboxylic acid, 5-methyl-",Cc1snnc1C(O)=O,-0.4598
biopterin,CC(O)C(O)c1cnc2NC(=NC(=O)c2n1)N,-2.5301
benzoylprop ethyl,CCOC(=O)C(C)N(C(=O)c1ccccc1)c2ccc(Cl)c(Cl)c2,-4.2627
tetrachlorvinphos,CO[P](=O)(OC)OC(=C/Cl)/c1cc(Cl)c(Cl)cc1Cl,-4.5221
"acetamide, n-(4-ethoxyphenyl)-2-hydroxy-",CCOc1ccc(NC(=O)CO)cc1,-2.1058
"acetic acid, bis(2-carboxyphenyl)-",OC(=O)C(c1ccccc1C(O)=O)c2ccccc2C(O)=O,-2.4998
"methanesulfonamide, n-phenyl-n-((1,1,2,2-tetrach",C[S](=O)(=O)N(SC(Cl)(Cl)C(F)(Cl)Cl)c1ccccc1,-5.1485
"benzenepropanoic acid, 2-nitro-.beta.-oxo-",OC(=O)CC(=O)c1ccccc1[N+]([O-])=O,-1.8434
bendiocarb,CNC(=O)Oc1cccc2OC(C)(C)Oc12,-2.9338
anisomycin,COc1ccc(C[C@@H]2NC[C@@H](O)[C@@H]2OC(C)=O)cc1,-1.6075
"propanoic acid, 2,2,3,3-tetrafluoro-, sodium sal",[Na+].[O-]C(=O)C(F)(F)C(F)F,-0.8829
dimethamrtryne,CCNc1nc(NC(C)C(C)C)nc(SC)n1,-3.7082
cyprazine,CC(C)Nc1nc(Cl)nc(NC2CC2)n1,-3.5185
prallethrin,CC(C)=C[C@H]1[C@H](C(=O)OC2CC(=O)C(=C2C)CC#C)C1(C)C,-4.5746
"1h-purine-2,6-dione, 7-ethyl-3,7-dihydro-1,3-dim",CCn1cnc2N(C)C(=O)N(C)C(=O)c12,-0.7544
pirimicarb,CN(C)C(=O)Oc1nc(nc(C)c1C)N(C)C,-1.9457
oxamyl,CNC(=O)O\N=C(SC)\C(=O)N(C)C,0.1062
"1h-purine-2,6-dione, 3,7-dihydro-7-(3-hydroxypro",CN1C(=O)N(C)c2ncn(CCCO)c2C1=O,-0.1551
formetanate hydrochloride,[H+].[Cl-].CNC(=O)Oc1cccc(c1)N=CN(C)C,0.5037
pirimiphos ethyl,CCO[P](=S)(OCC)Oc1cc(C)nc(n1)N(CC)CC,-4.9242
heptenophos,CO[P](=O)(OC)OC1=C(Cl)C2C=CCC12,-2.0011
thiophanate-methyl,COC(=O)NC(=S)Nc1ccccc1NC(=S)NC(=O)OC,-4.1097
"octanedioic acid, 3,3,6,6-tetramethyl-",CC(C)(CCC(C)(C)CC(O)=O)CC(O)=O,-3.1319
n-hexyl nicotinoate,CCCCCCOC(=O)c1cccnc1,-2.6538
"phosphonic acid, (1,6-hexanediylbis(nitrilobis(m",O[P](O)(=O)CN(CCCCCCN(C[P](O)(O)=O)C[P](O)(O)=O)C[P](O)(O)=O,-1.5161
"1h-purin-8-amine, n,n-dimethyl-",CN(C)c1[nH]c2cncnc2n1,-1.3885
"pteridine, 2,6,7-trimethyl-",Cc1ncc2nc(C)c(C)nc2n1,-1.1442
"d-glucose, (aminocarbonyl)hydrazone",NC(=O)NN=C[C@H](O)[C@@H](O)[C@H](O)[C@H](O)CO,-1.0041
"5-pyrimidinecarboxylic acid, 1,2,3,4-tetrahydro-",OC(=O)C1=CNC(=O)NC1=O,-1.9381
pronamide,CC(C)(NC(=O)c1cc(Cl)cc(Cl)c1)C#C,-4.2324
triazophos,CCO[P](=S)(OCC)Oc1ncn(n1)c2ccccc2,-3.9049
"naphtho[2,3-c]furan-1(3h)-one, 3,3-dimethyl-",CC1(C)OC(=O)c2cc3ccccc3cc12,-2.9844
2-methyl-4-bromoacetanilide,CC(=O)Nc1ccc(Br)cc1C,-1.756
"acetamide-2-chloro-n-(2,6-dimethylphenyl)-n-((2-",CC(C)COCN(C(=O)CCl)c1c(C)cccc1C,-3.6822
fenfuram,Cc1occc1C(=O)Nc2ccccc2,-3.3037
"hexanedioic acid, 3-butyl-",CCCCC(CCC(O)=O)CC(O)=O,-1.3974
"cyclopentaneacetic acid, 3-oxo-2-pentyl-, methyl",CCCCCC1C(CCC1=O)CC(=O)OC,-2.9076
"4(1h)-pteridinone, 6,7-diphenyl-",O=C1N=CNc2nc(c3ccccc3)c(nc12)c4ccccc4,-3.1766
"phenol, 2-iodo-6-methyl-",Cc1cccc(I)c1O,-1.8378
"2,5-dichlorodiphenyl ether",Clc1ccc(Cl)c(Oc2ccccc2)c1,-4.9703
"3,4',5-trichlorodiphenyl ether",Clc1ccc(Oc2cc(Cl)cc(Cl)c2)cc1,-5.5201
chlormephos,CCO[P](=S)(OCC)SCCl,-3.5924
benazolin-ethyl,CCOC(=O)CN1C(=O)Sc2cccc(Cl)c12,-3.762
"acetic acid, (2,4-dinitrophenoxy)-",OC(=O)COc1ccc(cc1[N+]([O-])=O)[N+]([O-])=O,-1.9369
"2,4-d, isooctyl ester",CCCCC(CC)COC(=O)COc1ccc(Cl)cc1Cl,-7.0122
hexene - mixture of isomers,CCC\C=C\C,-3.2262
dipropylene glycol,CCC(O)OC(O)CC,0.8723
"benzenesulfonamide, 4-(mannopyranosylamino)-",N[S](=O)(=O)c1ccc(NC2O[C@H](CO)[C@@H](O)[C@H](O)[C@@H]2O)cc1,-0.9801
mcpa-thioethyl,CCSC(=O)COc1ccc(Cl)cc1C,-5.027
1-<hydroxyimino-(seqtrans)>-1-phenyl-acetone,CC(=O)C(=N\O)/c1ccccc1,-2.3676
thiazafluron,CNC(=O)N(C)c1sc(nn1)C(F)(F)F,-2.0584
"1,2-dibromoethene",Br\C=C\Br,-1.7415
hydroxycinnamic acid,OC(=O)\C=C/c1cccc(O)c1,-2.099
dowanol tpm,COCC(C)OCC(C)OC(C)CO,0.6855
fosamine ammonium salt,[NH4+].CCO[P]([O-])(=O)C(N)=O,0.7693
"1,4-naphthalenedione, 2-(methylthio)-",CSC1=CC(=O)c2ccccc2C1=O,-4.4651
profluralin,CCCN(CC1CC1)c2c(cc(cc2[N+]([O-])=O)C(F)(F)F)[N+]([O-])=O,-6.5407
tirpate,CNC(=O)O/N=C/C1(C)SCC(C)S1,-2.3698
cresyl diphenyl phosphate,Cc1ccc(O[P](=O)(Oc2ccccc2)Oc3ccccc3)cc1,-6.1517
"phosphoric acid, bis(methylphenyl) phenyl ester",Cc1ccc(O[P](=O)(Oc2ccccc2)Oc3ccccc3C)cc1,-6.3733
"3(2h)-isothiazolone, 2-octyl-",CCCCCCCCN1SC=CC1=O,-2.6301
hexachlorobiphenyl,Clc1ccccc1c2c(Cl)c(Cl)c(Cl)c(Cl)c2Cl,-8.0133
"phosphoric acid, diethyl 2-methylpropyl ester",CCO[P](=O)(OCC)OCC(C)C,-1.1765
"pentanoic acid, 4-oxo-3-(phenylmethylene)-",CC(=O)C(CC(O)=O)=Cc1ccccc1,-1.6111
"4(1h)-pyrimidinone, 5-bromo-2-phenyl-",BrC1=CNC(=NC1=O)c2ccccc2,-3.4792
"butanoic acid, 1,2-ethanediylbis(oxy-2,1-ethaned",CCCC(=O)OCCOCCOCCOC(=O)CCC,-1.5598
"3-pyridinecarboxamide, n-[(phenylamino)carbonyl]",O=C(NC(=O)c1cccnc1)Nc2ccccc2,-3.3825
hexachlorocyclohexane,ClC1CC(Cl)(Cl)C(Cl)C(Cl)C1Cl.ClC2CCC(Cl)(Cl)C(Cl)C2(Cl)Cl.ClC3C(Cl)C(Cl)C(Cl)C(Cl)C3Cl,-4.9408
tetradecanol,CCCCCCCCCCC(O)CCC,-5.837000000000001
norflurazon,CNC1=C(Cl)C(=O)N(N=C1)c2cccc(c2)C(F)(F)F,-3.9548
tetrachlorophthalide,Clc1c(Cl)c(Cl)c2C(=O)OCc2c1Cl,-5.0365
ethychlozate,CCOC(=O)Cc1[nH]nc2ccc(Cl)cc12,-3.0256
quinonamid,ClC(Cl)C(=O)NC1=C(Cl)C(=O)c2ccccc2C1=O,-5.0261
diisooctyl phthalate,CC(C)CCCCCOC(=O)c1ccccc1C(=O)OCCCCCC(C)C,-6.6375
probenazole,C=CCOC1=N[S](=O)(=O)c2ccccc12,-3.1727
"2-butanone, 3-ethoxy-1,1-dihydroxy-; or kethoxal",CCOC(C)C(=O)C(O)O,-0.1707
"1,1'-biphenyl, octabromo-",Brc1ccc(c(Br)c1Br)c2c(Br)c(Br)c(Br)c(Br)c2Br,-9.351
isopropyl phenyl diphenyl phosphate,CC(C)c1ccccc1O[P](=O)(Oc2ccccc2)Oc3ccccc3,-5.2239
"2h-purine-2-thione, 1,3-dihydro-",S=C1Nc2nc[nH]c2C=N1,-2.5803
"2,6-dinitro-biphenyl-3-ol",Oc1ccc(c(c2ccccc2)c1[N+]([O-])=O)[N+]([O-])=O,-3.7164
chloromethiuron,CN(C)C(=S)Nc1ccc(Cl)cc1C,-3.6604
"2,6-dichlorodiphenyl ether",Clc1cccc(Cl)c1Oc2ccccc2,-5.0605
bioresmethrin,CC(C)=CC1C(C(=O)OCc2coc(Cc3ccccc3)c2)C1(C)C,-6.0524
"1,2-dithiane-3,6-dicarboxylic acid, cis-",OC(=O)[C@@H]1CC[C@@H](SS1)C(O)=O,-1.1709
"2,4(1h,3h)-pyrimidinedione, 1-methyl-5-nitro-",CN1C=C(C(=O)NC1=O)[N+]([O-])=O,-1.9977
dinitramine,CCN(CC)c1c(cc(c(N)c1[N+]([O-])=O)C(F)(F)F)[N+]([O-])=O,-5.4668
benzoximate,CCN(OC(=O)c1ccccc1)C(=O)c2c(OC)ccc(Cl)c2OC,-4.0837
atenolol,CC(C)NCC(O)COc1ccc(CC(N)=O)cc1,-1.3016
"propanediamide, 2,2-diethyl-",CCC(CC)(C(N)=O)C(N)=O,-1.1992
Mecarphon,COC(=O)N(C)C(=O)CS[P](C)(=S)OC,-1.9563
hexadecanol,CCCCCCCCCCCCC(O)CCC,-6.7708
"1-naphthalenecarboxamide, n-hydroxy-n-phenyl-",ON(c1ccccc1)C(=O)c2cccc3ccccc23,-3.9433
"benzamide, n-hydroxy-n-1-naphthalenyl-",ON(C(=O)c1ccccc1)c2cccc3ccccc23,-3.3065
"benzamide, 3,5-dinitro-n-phenyl-n-hydroxy-",ON(c1ccccc1)C(=O)c2cc(cc(c2)[N+]([O-])=O)[N+]([O-])=O,-3.6367
"acetic acid, [(aminothioxomethyl)thio]-",NC(=S)SCC(O)=O,-0.7482
"glycine, n-(dithiocarboxy)-, n-ester with mercap",OC(=O)CNC(=S)SCC(O)=O,-1.3011
"benzamide, n-[2-(1h-imidazol-4-yl)ethyl]-",O=C(NCCc1c[nH]cn1)c2ccccc2,-0.634
isodecyl diphenyl phosphate,CC(C)CCCCCCCO[P](=O)(Oc1ccccc1)Oc2ccccc2,-5.7165
ethiofencarb,CCSCc1ccccc1OC(=O)NC,-2.0927
"1,2:3,4-diepoxybutane (2s,3s)",C1O[C@@H]1[C@@H]2CO2,1.065
ethidimuron,CC[S](=O)(=O)c1sc(nn1)N(C)C(=O)NC,-1.945
"propanoic acid, 2-(2,4,5-trichlorophenoxy)-, (r)",C[C@@H](Oc1cc(Cl)c(Cl)cc1Cl)C(O)=O,-3.1295
"2-furanol, 5-ethyltetrahydro-",CCC1CCC(O)O1,-0.0651
"1,2:3,4-diepoxybutane (2r,3r)",C1O[C@H]1[C@H]2CO2,1.065
"1,6-dioxaspiro[4,4]nonane, 2,7-dimethyl-",CC1CCC2(CCC(C)O2)O1,-0.4487
"thymidine, 3'-azido-3'-deoxy-",CC1=CN([C@H]2C[C@H](N=[N+]=[N-])[C@@H](CO)O2)C(=O)NC1=O,-1.1221
etofenamate,OCCOCCOC(=O)c1ccccc1Nc2cccc(c2)C(F)(F)F,-5.3633
"pteridine, 4-methoxy-",COc1ncnc2nccnc12,-1.113
zolone,CCO[P](=S)(OCC)SCN1C(=O)Oc2ccccc12,-5.1905
benzo(a)fluorene,C1c2ccccc2c3ccc4ccccc4c13,-6.678
Methacrifos,COC(=O)C(/C)=C/O[P](=S)(OC)OC,-2.7785
cafaminol,CN(CCO)c1nc2N(C)C(=O)N(C)C(=O)c2n1C,-0.6488
isocarbamid,CC(C)CNC(=O)N1CCNC1=O,-2.1538
"3(2h)-thiazoleacetic acid, 4-methyl-2-thioxo-",CC1=CSC(=S)N1CC(O)=O,-1.9632
metrizamide,CN(C(C)=O)c1c(I)c(NC(C)=O)c(I)c(C(=O)NC2[C@@H](O)OC(CO)[C@@H](O)C2O)c1I,-0.1982
propetamphos,CCN[P](=S)(OC)OC(/C)=C\C(=O)OC(C)C,-3.4078
3-methyl-2-heptanol,CCCCC(C)C(C)O,-2.0578
"benzo[a]pyrene, 5-methyl-",Cc1cc2cccc3ccc4c5ccccc5cc1c4c23,-8.5224
lyral,CC(C)(O)CCCC1=CCC(CC1)C=O,-1.5376
heptachloronaphthalene,Clc1cc(Cl)c2c(Cl)c(Cl)c(Cl)c(Cl)c2c1Cl,-8.775
divicine,NC1N=C(N)NC(=O)C1=O,-1.6978
"2-furoic acid, 3,4,5-trichloro-",OC(=O)c1oc(Cl)c(Cl)c1Cl,-2.2193
"9-octadecenoic acid, 12-(sulfooxy)-, (z)-",CCCCCCC(C\C=C/CCCCCCCC(O)=O)O[S](O)(=O)=O,-0.5781
"4-quinolinecarboxylic acid, 1,2-dihydro-6-methox",COc1ccc2NC(=O)C=C(C([O-])=O)c2c1,-3.1104
"d-glucuronic acid, .gamma.-lactone",O[C@@H](C=O)[C@H]1OC(=O)[C@@H](O)[C@H]1O,0.1641
"2-furancarboxylic acid, 3,4-dibromo-",OC(=O)c1occ(Br)c1Br,-2.0887
"succinamic acid, 3-amino-2-hydroxy-",NC(C(O)C(O)=O)C(N)=O,-1.1494
"2(1h)-pyrimidinone, 4-amino-5-ethyl-",CCC1=CNC(=O)N=C1N,-1.0197
"2,3,3',4,4'-pentachloro-1,1'-biphenyl",Clc1ccc(cc1Cl)c2ccc(Cl)c(Cl)c2Cl,-7.9823
"1,2-dithiane-3,6-dicarboxylic acid, trans-",OC(=O)[C@H]1CC[C@@H](SS1)C(O)=O,-1.5241
"3,3',4,4',5,5'-pcb",Clc1cc(cc(Cl)c1Cl)c2cc(Cl)c(Cl)c(Cl)c2,-8.8498
procymidone,CC12CC1(C)C(=O)N(C2=O)c3cc(Cl)cc(Cl)c3,-4.8003
m-bromocinnamic acid,OC(=O)/C=C/c1cccc(Br)c1,-2.636
amitraz,CN(C=Nc1ccc(C)cc1C)C=Nc2ccc(C)cc2C,-5.4675
"1,1'-biphenyl, 2,2',3,3',4,4',6,6'-octachloro-",Clc1cc(Cl)c(c(Cl)c1Cl)c2c(Cl)cc(Cl)c(Cl)c2Cl,-9.1
2-ethylacetanilide,CCc1ccccc1NC(C)=O,-1.5906
endosulfan (beta),ClC1=C(Cl)C2(Cl)[C@@H]3CO[S](=O)OC[C@@H]3[C@@]1(Cl)C2(Cl)Cl,-5.9563
fluchloralin,CCCN(CCCl)c1c(cc(cc1[N+]([O-])=O)C(F)(F)F)[N+]([O-])=O,-5.5968
"3,3',5,5'-tetrachlorobiphenyl",Clc1cc(Cl)cc(c1)c2cc(Cl)cc(Cl)c2,-8.3748
"2,3,5,6-tetrachlorobiphenyl",Clc1cc(Cl)c(Cl)c(c2ccccc2)c1Cl,-7.25
butralin,CCC(C)Nc1c(cc(cc1[N+]([O-])=O)C(C)(C)C)[N+]([O-])=O,-5.4703
"ethanone, 1-(3,4,5-trihydroxyphenyl)-",CC(=O)c1cc(O)c(O)c(O)c1,-1.4711
isopropalin,CCCN(CCC)c1c(cc(cc1[N+]([O-])=O)C(C)C)[N+]([O-])=O,-6.4491
"phosphorohydrazidic acid, diphenyl ester",NN[P](=O)(Oc1ccccc1)Oc2ccccc2,-2.2373
methyl phenylsulfonyl acetate,COC(=O)C[S](=O)(=O)c1ccccc1,-1.1406
"l-alanine, n-[(ethylthio)thioxomethyl]-",CCSC(=S)N[C@@H](C)C(O)=O,-0.9613
"1,2,3-benzenetricarboxylic acid, 5-bromo-",OC(=O)c1cc(Br)cc(C(O)=O)c1C(O)=O,-1.4481
"1,1-bis(p-meo-ph)-2-nitropropane",COc1ccc(cc1)C(C(C)[N+]([O-])=O)c2ccc(OC)cc2,-4.5446
dimefuron,CN(C)C(=O)Nc1ccc(N2N=C(OC2=O)C(C)(C)C)c(Cl)c1,-4.3258
cumylphenyl diphenyl phosphate,CC(C)c1cc(O[P](=O)(Oc2ccccc2)Oc3ccccc3)cc(c1)c4ccccc4,-6.8485
"2-propenoic acid, 7-bromo-5-chloro-8-quinolinyl",Clc1cc(Br)c(OC(=O)C=C)c2ncccc12,-4.7168
dipropylene glycol methyl ether,COC(C)COC(C)CO,0.8292
orbencarb,CCN(CC)C(=O)SCc1ccccc1Cl,-4.031000000000001
prothiophos,CCCS[P](=S)(OCC)Oc1ccc(Cl)cc1Cl,-6.693
butocarboxim,CNC(=O)O\N=C(\C)C(C)SC,-0.7353
butoxycarboxim,CNC(=O)O\N=C(/C)C(C)[S](C)(=O)=O,-0.0267
heptenophos,CO[P](=O)(OC)OC1=C(Cl)CC2C=CC12,-2.0566
"acetic acid, 2,2',2''-[methylidynetris(thio)]tri",OC(=O)CSC(SCC(O)=O)SCC(O)=O,-1.4243
"2,2',3,4,4',5,5'-heptachlorobiphenyl",Clc1cc(Cl)c(cc1Cl)c2cc(Cl)c(Cl)c(Cl)c2Cl,-8.0115
"2,2',3,3',4,4',5-heptachlorobiphenyl",Clc1ccc(c(Cl)c1Cl)c2cc(Cl)c(Cl)c(Cl)c2Cl,-8.0566
"dl-alanine, n-(2-chlorophenyl)-",CC(Nc1ccccc1Cl)C(O)=O,-2.3271
tebutam,CC(C)N(Cc1ccccc1)C(=O)C(C)(C)C,-2.4704
"butanoic acid, 4-(benzoylamino)-",OC(=O)CCCNC(=O)c1ccccc1,-1.2025
sulprofos,CCCS[P](=S)(OCC)Oc1ccc(SC)cc1,-6.0171
"benzoic acid, 5-chloro-2-hydroxy-4-methyl-",Cc1cc(O)c(cc1Cl)C(O)=O,-3.1248
imazalil base,Clc1ccc(C(Cn2ccnc2)OCC=C)c(Cl)c1,-3.2178
bilanafos,C[C@H](NC(=O)[C@H](C)NC(=O)[C@@H](N)CC[P](C)(O)=O)C(O)=O,0.4904
piroxicam,CN1C(=C(/O)Nc2ccccn2)/C(=O)c3ccccc3[S]1(=O)=O,-4.1586
fenbufen,OC(=O)CCC(=O)c1ccc(cc1)c2ccccc2,-5.0609
"benzene, 1,1'-oxybis-, hexabromo deriv.",Brc1cc(Br)c(Oc2cc(Br)cc(Br)c2Br)c(Br)c1,-8.1979
phosdiphen,CCO[P](=O)(Oc1ccc(Cl)cc1Cl)Oc2ccc(Cl)cc2Cl,-5.774