Name,SMILES,Solubility
"N,N,N-trimethyloctadecan-1-aminium bromide",[Br-].CCCCCCCCCCCCCCCCCC[N+](C)(C)C,-3.6161271205
Benzo[cd]indol-2(1H)-one,O=C1Nc2cccc3cccc1c23,-3.2547670983
4-chlorobenzaldehyde,Clc1ccc(C=O)cc1,-2.1770779444
"zinc bis[2-hydroxy-3,5-bis(1-phenylethyl)benzoate]",[Zn++].CC(c1ccccc1)c2cc(C(C)c3ccccc3)c(O)c(c2)C([O-])=O.CC(c4ccccc4)c5cc(C(C)c6ccccc6)c(O)c(c5)C([O-])=O,-3.9244090954
"4-({4-[bis(oxiran-2-ylmethyl)amino]phenyl}methyl)-N,N-bis(oxiran-2-ylmethyl)aniline",C1OC1CN(CC2CO2)c3ccc(Cc4ccc(cc4)N(CC5CO5)CC6CO6)cc3,-4.6620645831
vinyltoluene,Cc1cccc(C=C)c1,-3.1231503041
3-(3-ethylcyclopentyl)propanoic acid,CCC1CCC(CCC(O)=O)C1,-3.286116314
"11,16,17,21-tetrahydroxypregna-1,4-diene-3,20-dione",CC12CC(O)C3C(CCC4=CC(=O)C=CC34C)C1CC(O)C2(O)C(=O)CO,-2.6645485391
bis(4-fluorophenyl)methanone,Fc1ccc(cc1)C(=O)c2ccc(F)cc2,-4.396652184700001
1-[2-(benzoyloxy)propoxy]propan-2-yl benzoate 1-{[1-(benzoyloxy)propan-2-yl]oxy}propan-2-yl benzoate 2-{[1-(benzoyloxy)propan-2-yl]oxy}propyl benzoate,O=C(OCCCOCCCOC(=O)c1ccccc1)c2ccccc2,-4.595502563999999
4-(dimethylamino)benzaldehyde,CN(C)c1ccc(C=O)cc1,-2.2827688499
2-methyl-1-phenylpropan-2-yl acetate,CC(=O)OC(C)(C)Cc1ccccc1,-2.3946499685
"2,3-dimethylphenol; 2,4-dimethylphenol; 2,5-dimethylphenol; 2,6-dimethylphenol; 3,4-dimethylphenol; 3,5-dimethylphenol",Cc1ccc(O)c(C)c1.Cc2ccc(C)c(O)c2.Cc3cc(C)cc(O)c3.Cc4ccc(O)cc4C.Cc5cccc(O)c5C.Cc6cccc(C)c6O,-1.9803097957
2-(4-tert-butylphenoxymethyl)oxirane,CC(C)(C)c1ccc(OCC2CO2)cc1,-3.4302388798
5-methoxy-1-[4-(trifluoromethyl)phenyl]pentan-1-one,COCCCCC(=O)c1ccc(cc1)C(F)(F)F,-3.5440597008
"(2E)-3,7-dimethylocta-2,6-dien-1-ol",CC(C)=CCC\C(C)=C/CO,-2.3206011661000003
2-(4-chloro-2-methylphenoxy)propanoic acid,CC(Oc1ccc(Cl)cc1C)C(O)=O,-2.4660307863
zinc bis[O-(2-ethylhexyl) O-isobutyl dithiophosphate],[Zn++].CCCCC(CC)CO[P]([S-])(=S)OCC(C)C.CCCCC(CC)CO[P]([S-])(=S)OCC(C)C,-2.9581950472000003
1-chloro-3-(trifluoromethyl)benzene,FC(F)(F)c1cccc(Cl)c1,-3.4115138849
"oxiran-2-ylmethyl 2,2-dimethyloctanoate",CCC(C)(CCC(C)C)C(=O)OCC1CO1,-3.5134687407
2-methylheptyl 3-sulfanylpropanoate,CC(C)CCCCCOC(=O)CCS,-4.4543816995
1-methyl-4-(propan-2-ylidene)cyclohex-1-ene,CC(C)=C1CCC(=CC1)C,-4.2873429345
aluminium(3+) ion sodium bis(oxosilanebis(olate)),[Na+].[Al+3].[O-][Si]([O-])=O.[O-][Si]([O-])=O,-3.4731390517
zinc(2+) ion bis(2-methylprop-2-enoate),[Zn++].CC(=C)C([O-])=O,-2.3632080977000003
3-[2-(ethylamino)-1-hydroxyethyl]phenol,CCNCC(O)c1cccc(O)c1,-3.4541026398000003
"Phosphorodithioic acid, mixed O,O-bis(sec-Bu and 1,3-dimethylbutyl) esters, zinc salts",[Zn++].CCC(C)O[P]([S-])(=S)OC(C)CC(C)C.CCC(C)O[P]([S-])(=S)OC(C)CC(C)C,-2.9908768679000004
"2,4-dichloro-1-(chloromethyl)benzene",ClCc1ccc(Cl)cc1Cl,-3.5129421932
"(1S,5S)-6,6-dimethyl-2-methylidenebicyclo[3.1.1]heptane",CC1(C)C2CCC(=C)C1C2,-4.2923134549
"9-Octadecenoic acid (Z)-, reaction products with 2-[(2-aminoethyl)amino]ethanol",CCCCCCCC\C=C/CCCCCCCC(O)=O.NCCNCCO,-4.8091341894
dodecyl 2-hydroxypropanoate,CCCCCCCCCCCCOC(=O)C(C)O,-4.6341446203
hydroxylamine,NO,-0.763033718
2-phenoxyethyl prop-2-enoate,C=CC(=O)OCCOc1ccccc1,-2.5636257131
benzyl-tributylazanium; 4-hydroxynaphthalene-1-sulfonate,CCCC[N+](CCCC)(CCCC)Cc1ccccc1.Oc2ccc(c3ccccc23)[S]([O-])(=O)=O,-2.6418192727000003
undec-10-enoic acid,OC(=O)CCCCCCCCC=C,-3.5528261452
"carboxymethyldimethyl-3-[[(3,3,4,4,5,5,6,6,7,7,8,8,8-tridecafluorooctyl)sulphonyl]amino]propylammonium hydroxide",C[N+](C)(CCCN[S](=O)(=O)CCC(F)(F)C(F)(F)C(F)(F)C(F)(F)C(F)(F)C(F)(F)F)CC([O-])=O,-4.0571851475
2-benzyl-2-(dimethylamino)-1-[4-(morpholin-4-yl)phenyl]butan-1-one,CCC(Cc1ccccc1)(N(C)C)C(=O)c2ccc(cc2)N3CCOCC3,-4.7932278922
"4-(4,6-dimethylheptan-2-yl)phenol; 4-(5,6-dimethylheptan-2-yl)phenol; 4-(5,6-dimethylheptyl)phenol; 4-(7-methyloctyl)phenol",CC(C)CCCCCCc1ccc(O)cc1,-4.587250024599999
"1,3-bis(prop-1-en-2-yl)benzene",CC(=C)c1cccc(c1)C(C)=C,-4.4511392252
molybdenum,[Mo],-4.2038484637
"ethenyl 2,2-dimethyloctanoate",CC(C)(C)CCCCCC(=O)OC=C,-4.581332510899999
1-tert-butyl-4-methylbenzene,Cc1ccc(cc1)C(C)(C)C,-4.4720217682
cyclohexanecarboxylic acid,OC(=O)C1CCCCC1,-1.445031941
"pentasodium 5-{[4-chloro-6-({3-[2-(sulfonatooxy)ethanesulfonyl]phenyl}amino)-1,3,5-triazin-2-yl]amino}-3-[(E)-2-(1,5-disulfonatonaphthalen-2-yl)diazen-1-yl]-4-hydroxynaphthalene-2,7-disulfonate",[Na+].[Na+].[Na+].[Na+].[Na+].[O-][S](=O)(=O)OCC[S](=O)(=O)c1cccc(Nc2nc(Cl)nc(Nc3cc(cc4C=C(\C(=N/Nc5ccc6c(cccc6[S]([O-])(=O)=O)c5[S]([O-])(=O)=O)C(=O)c34)[S]([O-])(=O)=O)[S]([O-])(=O)=O)n2)c1,-0.4108977358
"N,N'-bis(3-phenylprop-2-en-1-ylidene)hexane-1,6-diamine",C(CCCN=C\C=C\c1ccccc1)CCN=C/C=C/c2ccccc2,-3.8937390711
"2-(benzotriazol-2-yl)-6-[[3-(benzotriazol-2-yl)-2-hydroxy-5-(2,4,4-trimethylpentan-2-yl)phenyl]methyl]-4-(2,4,4-trimethylpentan-2-yl)phenol",CC(C)(C)CC(C)(C)c1cc(Cc2cc(cc(n3nc4ccccc4n3)c2O)C(C)(C)CC(C)(C)C)c(O)c(c1)n5nc6ccccc6n5,-7.973715535399999
[2-({4-[(E)-2-(2-chloro-4-nitrophenyl)diazen-1-yl]phenyl}(ethyl)amino)ethyl]trimethylazanium chloride,[Cl-].CCN(CC[N+](C)(C)C)c1ccc(cc1)N=Nc2ccc(cc2Cl)[N+]([O-])=O,-3.0386996230000003
"2-(morpholin-4-ylsulfanyl)-1,3-benzothiazole",C1CN(CCO1)Sc2sc3ccccc3n2,-3.8109627954
"(1R-(1alpha,2beta,4beta,6alpha))-2,2,7-Trimethyl-3-oxatricyclo(4.1.1.02,4)octane",CC1(C)[C@H]2C[C@@H]3O[C@]3(C)[C@@H]1C2,-2.5936884915
"tetrasodium 7-[(E)-2-[2-(carbamoylamino)-4-{[4-chloro-6-({3-[2-(sulfonatooxy)ethanesulfonyl]phenyl}amino)-1,3,5-triazin-2-yl]amino}phenyl]diazen-1-yl]naphthalene-1,3,6-trisulfonate",[Na+].[Na+].[Na+].[Na+].NC(=O)Nc1cc(Nc2nc(Cl)nc(Nc3cccc(c3)[S](=O)(=O)CCO[S]([O-])(=O)=O)n2)ccc1N=Nc4cc5c(cc(cc5[S]([O-])(=O)=O)[S]([O-])(=O)=O)cc4[S]([O-])(=O)=O,-0.4261364852
"disodium 7-{[4-chloro-6-(dodecylamino)-1,3,5-triazin-2-yl]amino}-4-hydroxy-3-(2-{4-[2-(4-sulfonatophenyl)diazen-1-yl]phenyl}diazen-1-yl)naphthalene-2-sulfonate",[Na+].[Na+].CCCCCCCCCCCCNc1nc(Cl)nc(Nc2ccc3c(O)c(N=Nc4ccc(cc4)N=Nc5ccc(cc5)[S]([O-])(=O)=O)c(cc3c2)[S]([O-])(=O)=O)n1,-3.358911212
S-ethyl dipropylthiocarbamate,CCCN(CCC)C(=O)SCC,-2.7031744039
2-[({4-[(oxiran-2-ylmethoxy)methyl]cyclohexyl}methoxy)methyl]oxirane,C1CC(CCC1COCC2CO2)COCC3CO3,-1.8357972344
"1-hydroxy-4-methyl-6-(2,4,4-trimethylpentyl)pyridin-2(1H)-one - 2-aminoethanol (1:1)",CC(CC1=CC(=CC(=O)N1O)C)CC(C)(C)C.NCCO,-3.9054642035
pentacalcium hydroxide triphosphate,[OH-].[Ca++].[Ca++].[Ca++].[Ca++].[Ca++].[O-][P]([O-])([O-])=O.[O-][P]([O-])([O-])=O.[O-][P]([O-])([O-])=O,-4.1419008964
"6H-dibenzo[c,e][1,2]oxaphosphinine 6-oxide",O=[P+]1Oc2ccccc2c3ccccc13,-1.7796231349
ethenyl benzoate,C=COC(=O)c1ccccc1,-2.6229591952
methyl 4-tert-butylbenzoate,COC(=O)c1ccc(cc1)C(C)(C)C,-3.7398163758
"2,2-dimethyl-3-(3-methylphenyl)propan-1-ol",Cc1cccc(CC(C)(C)CO)c1,-2.8265354685000004
"(2E)-3,7-dimethylocta-2,6-dien-1-yl acetate",CC(=O)OC\C=C(C)/CCC=C(C)C,-3.7549532157
"2-{6,6-dimethylbicyclo[3.1.1]hept-2-en-2-yl}ethan-1-ol",CC1(C)[C@H]2CC=C(CCO)[C@@H]1C2,-2.6959998037
"3,3,5-trimethylcyclohexanone",CC1CC(=O)CC(C)(C)C1,-1.6471414632
2-(2-phenylphenoxy)ethyl prop-2-enoate,C=CC(=O)OCCOc1ccccc1c2ccccc2,-3.9515188418
"3-[(3-sulfanylpropanoyl)oxy]-2,2-bis({[(3-sulfanylpropanoyl)oxy]methyl})propyl 3-sulfanylpropanoate",SCCC(=O)OCC(COC(=O)CCS)(COC(=O)CCS)COC(=O)CCS,-5.1231687481
"4-[2-(4-hydroxy-3,5-dimethylphenyl)propan-2-yl]-2,6-dimethylphenol",Cc1cc(cc(C)c1O)C(C)(C)c2cc(C)c(O)c(C)c2,-4.952868802799999
"1,3-bis(octadecanoyloxy)propan-2-yl octadecanoate",CCCCCCCCCCCCCCCCCC(=O)OCC(COC(=O)CCCCCCCCCCCCCCCCC)OC(=O)CCCCCCCCCCCCCCCCC,-5.4730005799
"ethyl 3,5,5-trimethylhexanoate",CCOC(=O)CC(C)CC(C)(C)C,-3.8230431676
calcium oxosilanebis(olate),[Ca++].[O-][Si]([O-])=O,-2.6500869941
5-Ethyl-2-methylpyridine,CCc1ccc(C)nc1,-1.0042604536
"(1R,2S,5R)-5-methyl-2-(propan-2-yl)cyclohexyl (2S)-2-hydroxypropanoate",CC(C)[C@@H]1CC[C@@H](C)C[C@H]1OC(=O)[C@H](C)O,-2.9799872046
Prednisolone,C[C@]12C[C@H](O)[C@H]3[C@@H](CCC4=CC(=O)C=C[C@]34C)[C@@H]1CC[C@]2(O)C(=O)CO,-3.1784471289
"disodium 5-methyl-2-({4-[(4-methyl-2-sulfonatophenyl)amino]-9,10-dioxo-9,10-dihydroanthracen-1-yl}amino)benzene-1-sulfonate",[Na+].[Na+].Cc1ccc(Nc2ccc(Nc3ccc(C)cc3[S]([O-])(=O)=O)c4C(=O)c5ccccc5C(=O)c24)c(c1)[S]([O-])(=O)=O,-1.4270312571
dialuminium(3+) ion dimolybdenum nonaoxidandiide,[O--].[O--].[O--].[O--].[O--].[O--].[O--].[O--].[O--].[Al+3].[Al+3].[Mo].[Mo],-4.2291529922
2-phenoxyethyl 2-methylprop-2-enoate,CC(=C)C(=O)OCCOc1ccccc1,-2.9526471698
"5-{[2-(2-butoxyethoxy)ethoxy]methyl}-6-propyl-2H-1,3-benzodioxole",CCCCOCCOCCOCc1cc2OCOc2cc1CCC,-4.1510889183
fluoromethane,CF,-0.1758743764999999
(2-phenoxyethoxy)benzene,C(COc1ccccc1)Oc2ccccc2,-3.9885265275
"4-[(4-amino-2-chloro-3,5-diethylphenyl)methyl]-3-chloro-2,6-diethylaniline",CCc1cc(Cc2cc(CC)c(N)c(CC)c2Cl)c(Cl)c(CC)c1N,-7.2780387128
"sodium 1-amino-9,10-dioxo-4-({2,4,6-trimethyl-3-[(phenylformamido)methyl]phenyl}amino)-9,10-dihydroanthracene-2-sulfonate",[Na+].Cc1cc(C)c(Nc2cc(c(N)c3C(=O)c4ccccc4C(=O)c23)[S]([O-])(=O)=O)c(C)c1CNC(=O)c5ccccc5,-1.4396051212999998
2-propylpentanoic acid,CCCC(CCC)C(O)=O,-1.8579774272
zinc di(benzothiazol-2-yl) disulphide,[Zn++].[S-]c1sc2ccccc2n1.[S-]c3sc4ccccc4n3,-4.285895804
2-(2-{[2-(oxiran-2-ylmethoxy)phenyl]methyl}phenoxymethyl)oxirane; 2-(2-{[4-(oxiran-2-ylmethoxy)phenyl]methyl}phenoxymethyl)oxirane; 2-(4-{[4-(oxiran-2-ylmethoxy)phenyl]methyl}phenoxymethyl)oxirane,Oc1ccccc1.ClCC2CO2.C=O,-4.0347567611
"3-[(2E)-oct-2-en-1-yl]oxolane-2,5-dione; 3-[(2Z)-oct-2-en-1-yl]oxolane-2,5-dione",CCCCCC/C=C/C1CC(=O)OC1=O,-4.0217535152
2-(chloromethyl)oxirane; 4-[2-(4-hydroxyphenyl)propan-2-yl]phenol; 2-methylprop-2-enoic acid,CC(=C)C(O)=O.CC(C)(c1ccc(O)cc1)c2ccc(O)cc2.ClCC3CO3,-5.229282852
"(1S,5S)-2,6,6-trimethylbicyclo[3.1.1]hept-2-ene",CC1=CC[C@H]2C[C@@H]1C2(C)C,-4.7725704235
trimethyl[(trimethylsilyl)oxy]silane,C[Si](C)(C)O[Si](C)(C)C,-4.909505216
"2,3,3,3-tetrafluoroprop-1-ene",FC(=C)C(F)(F)F,-2.7599573667
2H-chromen-2-one,O=C1Oc2ccccc2C=C1,-1.8860303607
1-methyl-4-(prop-1-en-2-yl)cyclohex-1-ene,CC(=C)C1CCC(=CC1)C,-3.8464965295
"hydrogen [4-[[4-(diethylamino)-o-tolyl][4-[ethyl(3-sulphonatobenzyl)amino]phenyl]methylene]cyclohexa-2,5-dien-1-ylidene](ethyl)(3-sulphonatobenzyl)ammonium, sodium salt",[Na+].CCN(CC)c1ccc([C+](c2ccc(cc2)N(CC)Cc3cccc(c3)[S]([O-])(=O)=O)c4ccc(cc4)N(CC)Cc5cccc(c5)[S]([O-])(=O)=O)c(C)c1,-0.6229779303
tungsten(4+) ion disulfanediide,S=[W]=S,-4.1391336425
disodium 5-[(E)-2-(5-hydroxy-3-methyl-1-phenyl-1H-pyrazol-4-yl)diazen-1-yl]-2-{4-[(E)-2-(5-hydroxy-3-methyl-1-phenyl-1H-pyrazol-4-yl)diazen-1-yl]-2-sulfonatophenyl}benzene-1-sulfonate,[Na+].[Na+].CC1=NN(C(=O)C1N=Nc2ccc(c3ccc(cc3[S]([O-])(=O)=O)N=NC4C(=NN(C4=O)c5ccccc5)C)c(c2)[S]([O-])(=O)=O)c6ccccc6,-1.642781181
"(1R,2R,4R)-1,7,7-trimethylbicyclo[2.2.1]heptan-2-yl acetate (1S,2S,4S)-1,7,7-trimethylbicyclo[2.2.1]heptan-2-yl acetate",CC(=O)O[C@H]1C[C@H]2CC[C@@]1(C)C2(C)C,-3.0887781924
dioxido-oxosilane; lead(+2) cation,[Pb++].[O-][Si]([O-])=O,-6.6197116003
2-methyl-1-phenylpropan-2-yl butanoate,CCCC(=O)OC(C)(C)Cc1ccccc1,-4.1359426126
"disodium 4,4'-[(2,4-dihydroxy-1,3-phenylene)didiazene-2,1-diyl]dinaphthalene-1-sulfonate",[Na+].[Na+].[O-][S](=O)(=O)c1ccc(N\N=C\2C=CC(=O)C(=N/Nc3ccc(c4ccccc34)[S]([O-])(=O)=O)\C2=O)c5ccccc15,-2.6038411441
1-[(1-propoxypropan-2-yl)oxy]propan-2-ol,CCCOCC(C)OCC(C)O,-0.0700526508
"5-isocyanato-1-(isocyanatomethyl)-1,3,3-trimethylcyclohexane",CC1(C)CC(CC(C)(CN=C=O)C1)N=C=O,-4.1708247593
"octadec-9-enoic acid - N-(2-aminoethyl)ethane-1,2-diamine (1:1)",CCCCCCCC\C=C/CCCCCCCC(O)=O.NCCNCCN,-4.4100874366000005
1-[2-[[4-[(2-chloro-4-nitrophenyl)azo]phenyl]ethylamino]ethyl]pyridinium acetate,CCN(CC[n+]1ccccc1)c2ccc(cc2)N=Nc3ccc(cc3Cl)[N+]([O-])=O.CC([O-])=O,-1.5218900849
diphenyl carbonate,O=C(Oc1ccccc1)Oc2ccccc2,-4.2169166627
vinyl 2-ethylhexanoate,CCCCC(CC)C(=O)OC=C,-4.1519109764
2-methyl-N-[(2-methylprop-2-enamido)methyl]prop-2-enamide,CC(=C)C(=O)NCNC(=O)C(C)=C,-1.1892367555
"(1Z,5Z)-cycloocta-1,5-diene",C\1C\C=C/CC\C=C1,-2.9659771733
(3-isocyanatopropyl)trimethoxysilane,CO[Si](CCCN=C=O)(OC)OC,-3.2569810012
(3-chloropropyl)triethoxysilane,CCO[Si](CCCCl)(OCC)OCC,-3.3285834497000004
"1,2-dibutyl benzene-1,2-dicarboxylate",CCCCOC(=O)c1ccccc1C(=O)OCCCC,-4.3876832538
"sodium 3-{[9,10-dioxo-4-({2,4,6-trimethyl-3-[(sodiooxy)sulfonyl]phenyl}amino)-9,10-dihydroanthracen-1-yl]amino}-2,4,6-trimethylbenzene-1-sulfonate",[Na+].[Na+].Cc1cc(C)c(c(C)c1Nc2ccc(Nc3c(C)cc(C)c(c3C)[S]([O-])(=O)=O)c4C(=O)c5ccccc5C(=O)c24)[S]([O-])(=O)=O,-1.7922611704
"4-benzoylbenzene-1,2,3-triol",Oc1ccc(c(O)c1O)C(=O)c2ccccc2,-3.3451078238
"3-[(2E)-dodec-2-en-1-yl]oxolane-2,5-dione; 3-[(2Z)-dodec-2-en-1-yl]oxolane-2,5-dione",CCCCCCCCC\C=C\CC1CC(=O)OC1=O,-4.4255032449
"dihydro-3-(tetrapropenyl)furan-2,5-dione",CC(C)CC(C)CC(C)\C=C(/C)C1CC(=O)OC1=O,-4.4255032449
{2-hydroxy-3-[(9Z)-octadec-9-enoyloxy]propoxy}boronic acid 2-hydroxy-3-{[hydroxy({2-hydroxy-3-[(9Z)-octadec-9-enoyloxy]propoxy})boranyl]oxy}propyl (9Z)-octadec-9-enoate 3-{[bis({2-hydroxy-3-[(9Z)-octadec-9-enoyloxy]propoxy})boranyl]oxy}-2-hydroxypropyl (9Z)-octadec-9-enoate,CCCCCCCC\C=C/CCCCCCCC(=O)OCC(O)COB(O)O.CCCCCCCC\C=C/CCCCCCCC(=O)OCC(O)COB(O)OCC(O)COC(=O)CCCCCCC\C=C/CCCCCCCC.CCCCCCCC\C=C/CCCCCCCC(=O)OCC(O)COB(OCC(O)COC(=O)CCCCCCC\C=C/CCCCCCCC)OCC(O)COC(=O)CCCCCCC\C=C/CCCCCCCC,-5.345705158
4-(decanoyloxy)benzoic acid,CCCCCCCCCC(=O)Oc1ccc(cc1)C(O)=O,-5.424547549700001
"4,4,13,13-tetraethoxy-3,14-dioxa-8,9-dithia-4,13-disilahexadecane",CCO[Si](CCCSSCCC[Si](OCC)(OCC)OCC)(OCC)OCC,-5.676541808600001
3-methylbutyl (2E)-3-(4-methoxyphenyl)prop-2-enoate,COc1ccc(\C=C\C(=O)OCCC(C)C)cc1,-5.4919252104
2-(hexadecanoylamino)acetic acid,CCCCCCCCCCCCCCCC(=O)NCC(O)=O,-5.593122621900001
"(1E,5E,9E)-cyclododeca-1,5,9-triene",C\1C\C=C/CC\C=C/CC/C=C1,-5.3651562541
"bis({[bis(3,5,5-trimethylhexyl)carbamothioyl]sulfanyl})zinc",CC(CCN(CCC(C)CC(C)(C)C)C(=S)S[Zn]SC(=S)N(CCC(C)CC(C)(C)C)CCC(C)CC(C)(C)C)CC(C)(C)C,-6.1025269393
2-[4-(bromomethyl)phenyl]benzonitrile,BrCc1ccc(cc1)c2ccccc2C#N,-6.6566491092
"2,2,6,6-tetramethylpiperidin-4-yl hexadecanoate 2,2,6,6-tetramethylpiperidin-4-yl octadecanoate",CCCCCCCCCCCCCCCCCC(=O)OC1CC(C)(C)NC(C)(C)C1.CCCCCCCCCCCCCCCC(=O)OC2CC(C)(C)NC(C)(C)C2,-6.214524895199999
N-(2-ethylhexyl)-7-methyloctanamide,CCCCC(CC)CNC(=O)CCCCCC(C)C,-5.731545252999999
Doramectin,CO[C@H]1C[C@@H](O[C@@H](C)[C@@H]1O)OC2[C@H](C)O[C@H](C[C@@H]2OC)OC3[C@@H](C)/C=C/C=C/4CO[C@@H]5[C@H](O)C(=C[C@@H](C(=O)O[C@H]6C[C@@H](C\C=C3/C)O[C@@]7(C6)O[C@@H]([C@@H](C)C=C7)C8CCCCC8)[C@]45O)C,-7.5558815137
"1,1':4',1''-terphenyl",c1ccc(cc1)c2ccc(cc2)c3ccccc3,-6.183335848
pyrene,c1cc2ccc3cccc4ccc(c1)c2c34,-6.1787966156
"1,4-dibutyl benzene-1,4-dicarboxylate",CCCCOC(=O)c1ccc(cc1)C(=O)OCCCC,-6.40319542
1-(2-ethylbutyl)cyclohexane-1-carbonitrile,CCC(CC)CC1(CCCCC1)C#N,-6.5873382321000005
1-(4-methoxyphenyl)-4-(4-nitrophenyl)piperazine,COc1ccc(cc1)N2CCN(CC2)c3ccc(cc3)[N+]([O-])=O,-6.9290130346000005
bis(8-methylnonyl) sebacate,CC(C)CCCCCCCOC(=O)CCCCCCCCC(=O)OCCCCCCCC(C)C,-7.2523945018
"6'-(dibutylamino)-3'-methyl-2'-(phenylamino)-3H-spiro[2-benzofuran-1,9'-xanthene]-3-one",CCCCN(CCCC)c1ccc2c(Oc3cc(C)c(Nc4ccccc4)cc3C25OC(=O)c6ccccc56)c1,-7.4042503575
"2,2-difluoro-1,3-benzodioxole-4-carbaldehyde",FC1(F)Oc2cccc(C=O)c2O1,-2.1558333574
"1-amino-4-(ethylamino)-9,10-dioxo-9,10-dihydroanthracene-2-carbonitrile",CCNc1cc(C#N)c(N)c2C(=O)c3ccccc3C(=O)c12,-7.6382805905
(3-aminopropyl)[(9Z)-octadec-9-en-1-yl]amine; bis((9Z)-octadec-9-enoic acid),CCCCCCCC\C=C/CCCCCCCCNCCCN.CCCCCCCC\C=C/CCCCCCCC(O)=O.CCCCCCCC\C=C/CCCCCCCC(O)=O,-8.2501920599
"2-ethylhexyl 4-[(4-{[4-(tert-butylcarbamoyl)phenyl]amino}-6-[(4-{[(2-ethylhexyl)oxy]carbonyl}phenyl)amino]-1,3,5-triazin-2-yl)amino]benzoate",CCCCC(CC)COC(=O)c1ccc(Nc2nc(Nc3ccc(cc3)C(=O)NC(C)(C)C)nc(Nc4ccc(cc4)C(=O)OCC(CC)CCCC)n2)cc1,-8.1852587653
dioxovanadium,O=[V]=O,-4.4002500912
1-dodecylpyridin-1-ium chloride,[Cl-].CCCCCCCCCCCC[n+]1ccccc1,-0.4539105371
"2-(2,6-dimethylphenoxy)acetic acid",Cc1cccc(C)c1OCC(O)=O,-2.2566445306
"({bis[(2-ethylhexanoyl)oxy]-2,4-dioxa-3-bora-1,5-dicobaltapentan-3-yl}oxy)cobaltio 2-ethylhexanoate",CCCCC(CC)C(=O)O[Co]OB(O[Co])O[Co](OC(=O)C(CC)CCCC)OC(=O)C(CC)CCCC,-1.8254561435
"disodium 4-[(E)-2-[2,6-dihydroxy-3-(hydroxymethyl)-5-[(E)-2-(4-sulfonatonaphthalen-1-yl)diazen-1-yl]phenyl]diazen-1-yl]naphthalene-1-sulfonate",[Na+].[Na+].OCC1=CC(=N/Nc2ccc(c3ccccc23)[S]([O-])(=O)=O)\C(=O)/C(=N/Nc4ccc(c5ccccc45)[S]([O-])(=O)=O)C1=O,-0.8171647444
1-(4-hydroxyphenyl)ethan-1-one,CC(=O)c1ccc(O)cc1,-1.1383824511
calcium magnesium(2+) ion dioxidandiide,[O--].[O--].[Mg++].[Ca++],-1.9883562334
disodium 3-[(E)-2-{4-[(E)-2-(7-amino-1-hydroxy-3-sulfonatonaphthalen-2-yl)diazen-1-yl]naphthalen-1-yl}diazen-1-yl]-2-hydroxybenzoate,[Na+].[Na+].Nc1ccc2cc(c(N=Nc3ccc(N=Nc4cccc(C([O-])=O)c4O)c5ccccc35)c(O)c2c1)[S]([O-])(=O)=O,-2.7868204517
"6,10-dimethylundeca-3,5,9-trien-2-one",CC(C)=CCC\C(C)=C\C=C\C(C)=O,-3.2972120668
"1,3-divinylimidazolidin-2-one",C=CN1CCN(C=C)C1=O,-1.1558864442
2-amino-4-nitrophenol,Nc1cc(ccc1O)[N+]([O-])=O,-2.2056018566
magnesium,[Mg++],-2.4020693383
oxocalcium,O=[Ca],-1.7683268794999998
"5-nitro-1,3-dihydro-2H-benzimidazol-2-one",[O-][N+](=O)c1ccc2NC(=O)Nc2c1,-3.2740875474
5-methyl-5-phenylhexan-3-one,Cc1ccc(cc1)[S](=O)(=O)/C(=C/N2CC(=O)NC2=S)C#N,-3.5292992951
2-ethyl-3-hydroxy-4H-pyran-4-one,CCC1=C(O)C(=O)C=CO1,-1.1759580204
methyl 2-phenylacetate,COC(=O)Cc1ccccc1,-2.2114017234
lead; sulfuric acid; hydrate,O.[Pb].O[S](O)(=O)=O,-4.226296415899999
1-chloro-2-methyl-3-nitrobenzene,Cc1c(Cl)cccc1[N+]([O-])=O,-3.2706864295
calcium dihydroxide,[OH-].[OH-].[Ca++],-1.9107299257
silicon(+4) cation tetraphosphate,[Si+4].[Si+4].[Si+4].[O-][P]([O-])([O-])=O.[O-][P]([O-])([O-])=O.[O-][P]([O-])([O-])=O.[O-][P]([O-])([O-])=O,-3.0559869634
1-chlorohexane,CCCCCCCl,-3.1223887332
"2,2,2-trifluoroethyl methacrylate",CC(=C)C(=O)OCC(F)(F)F,-2.2684756839
bismuth hydroxide nitrate oxide,[O-][N+](=O)O[Bi](O[N+]([O-])=O)O[N+]([O-])=O,-2.642008137
octan-2-one,CCCCCCC(C)=O,-2.1536963273
2-[(E)-oct-2-enyl]butanedioic acid,CCCCC/C=C/CC(CC(O)=O)C(O)=O,-2.4042405739
"2-(prop-1-en-1-yl)-2,3,3-tripropylbutanedioic acid",CCCC(CCC)(C(O)=O)C(CCC)(\C=C\C)C(O)=O,-3.4953596006
17-hydroxy-1-methylandrost-4-en-3-one,C[C@H]1CC(=O)C=C2CC[C@H]3[C@@H]4CC[C@H](O)[C@@]4(C)CC[C@@H]3[C@@]12C,-3.5264225666000004
"sodium 2-{2,5-dichloro-4-[(E)-2-(2-methyl-1H-indol-3-yl)diazen-1-yl]benzenesulfonamido}ethane-1-sulfonate",[Na+].CC\1=Nc2ccccc2C1=N/Nc3cc(Cl)c(cc3Cl)[S](=O)(=O)NCC[S]([O-])(=O)=O,-3.7561795168
2-hydroxy-1-(4-{[4-(2-hydroxy-2-methylpropanoyl)phenyl]methyl}phenyl)-2-methylpropan-1-one,CC(C)(O)C(=O)c1ccc(Cc2ccc(cc2)C(=O)C(C)(C)O)cc1,-4.536378597
barium(+2) cation; iron(+3) cation; oxygen(-2) anion,[O--].[O--].[O--].[O--].[O--].[O--].[O--].[O--].[O--].[O--].[O--].[O--].[O--].[O--].[O--].[O--].[O--].[O--].[O--].[Fe+3].[Fe+3].[Fe+3].[Fe+3].[Fe+3].[Fe+3].[Fe+3].[Fe+3].[Fe+3].[Fe+3].[Fe+3].[Fe+3].[Ba++],-8.7448595438
"(octahydro-4,7-methano-1H-indenediyl)bis(methylene) diacrylate",C=CC(=O)OCC1CCC2C3CC(CC3COC(=O)C=C)C12,-4.4930858187
1-(2-benzenesulfonamidophenyl)-3-phenylurea,O=C(Nc1ccccc1)Nc2ccccc2N[S](=O)(=O)c3ccccc3,-4.5784028785
dipotassium; oxygen(-2) anion; titanium(+4) cation,[O--].[O--].[O--].[K+].[K+].[Ti+4],-5.5836431263
2-ethylhexyl prop-2-enoate,CCCCC(CC)COC(=O)C=C,-4.2832046138
"zinc bis[O,O-bis(2-ethylhexyl)] bis(dithiophosphate)",[Zn++].CCCCC(CC)CO[P]([S-])(=S)OCC(CC)CCCC.CCCCC(CC)CO[P]([S-])(=S)OCC(CC)CCCC,-4.9288559714
Tricyclodecanyl acetate,CC(=O)OC1CC2CC1C3CCCC23,-3.3380498278
ethanethiol,CCS,-0.8459165595999999
3-({[({[(2-ethylhexyl)oxy]carbonyl}peroxy)carbonyl]oxy}methyl)heptane,CCCCC(CC)COC(=O)OOC(=O)OCC(CC)CCCC,-2.5951754429
"3,7-dimethyloct-6-enal",C[C@H](CCC=C(C)C)CC=O,-3.243750947
"(1S,2S)-1-methyl-4-(propan-2-yl)-7-oxabicyclo[2.2.1]heptan-2-ol",CC(C)[C@@]12CC[C@@](C)(O1)[C@@H](O)C2,-0.288092629
3-[4-(propan-2-yl)phenyl]propanal,CC(C)c1ccc(CCC=O)cc1,-3.3026567859
1-bromobutane,CCCCBr,-2.1977641867
sodium hydrogen (2S)-2-dodecanamidopentanedioate,[Na+].CCCCCCCCCCCC(=O)N[C@@H](CCC(O)=O)C([O-])=O,-3.6091104804
[2-(1-propoxyethoxy)ethyl]benzene,CCCOC(C)OCCc1ccccc1,-3.3841929036