Name,SMILES,Solubility
"N,N-dimethylacetamide",CN(C)C(C)=O,1.0598721633
N-(1-cyanoethyl)formamide,CC(NC=O)C#N,1.0083088579
N-ethylethanamine,CCNCC,1.1358509819
N-methylacetamide,CNC(C)=O,1.1361123296
aziridine,C1CN1,1.3658352118
"butane-1,2-diol",CCC(O)CO,1.0451691789
"butane-2,3-diol",C[C@@H](O)[C@H](C)O,1.0451691789
cyclohexanamine,NC1CCCCC1,1.0035890328
cyclopropanamine,NC1CC1,1.2433943163
ethanedioyl dichloride,ClC(=O)C(Cl)=O,0.8964494062999999
formamide,NC=O,1.3463919758
methanesulfonic acid,C[S](O)(=O)=O,1.0172449791
methyl hydroxymethoxyacetate,COC(=O)COCO,0.9204425284
methylhydrazine,CNN,1.3365535082
oxan-2-one,O=C1CCCCO1,0.9994921725
"pentane-1,2-diol",CCCC(O)CO,0.9823448956
"pentane-1,5-diol",OCCCCCO,0.9823448956
"propane-1,2-diamine",CC(N)CN,1.1300235759
propanoic acid,CCC(O)=O,1.1303048889
sodium trichloroacetate,[Na+].[O-]C(=O)C(Cl)(Cl)Cl,0.7319628929
"tetrasodium 5-({4-[bis(2-hydroxypropyl)amino]-6-[(4-sulfonatophenyl)amino]-1,3,5-triazin-2-yl}amino)-2-[(E)-2-[4-({4-[bis(2-hydroxypropyl)amino]-6-[(4-sulfonatophenyl)amino]-1,3,5-triazin-2-yl}amino)-2-sulfonatophenyl]ethenyl]benzene-1-sulfonate",[Na+].[Na+].[Na+].[Na+].CC(O)CN(CC(C)O)c1nc(Nc2ccc(cc2)[S]([O-])(=O)=O)nc(Nc3ccc(/C=C/c4ccc(Nc5nc(Nc6ccc(cc6)[S]([O-])(=O)=O)nc(n5)N(CC(C)O)CC(C)O)cc4[S]([O-])(=O)=O)c(c3)[S]([O-])(=O)=O)n1,-0.0867739927999999
tributyl(methyl)azanium chloride,[I-].CCCC[N+](C)(CCCC)CCCC,0.4850619562
trifluoroacetic acid,OC(=O)C(F)(F)F,0.9430113455
"1,2-oxathiolane 2,2-dioxide",O=[S]1(=O)CCCO1,-0.0868756938
"disodium 2,2'-ethene-1,2-diylbis(5-aminobenzenesulfonate)",[Na+].[Na+].Nc1ccc(\C=C\c2ccc(N)cc2[S]([O-])(=O)=O)c(c1)[S]([O-])(=O)=O,-0.6173904015
yttrium(3+) acetate,[Y+3].CC([O-])=O.CC([O-])=O.CC([O-])=O,-0.4249436743
3-aminobenzenesulfonic acid,Nc1cccc(c1)[S](O)(=O)=O,-1.2051065795
6'-methoxycinchonan-9-ol sulfate (salt),COc1ccc2nccc(C(O)C3CC4CCN3CC4C=C)c2c1.O[S](O)(=O)=O,-1.5924060415
3-bromo-1-(3-chloropyridin-2-yl)-1H-pyrazole-5-carboxylic acid,OC(=O)c1cc(Br)nn1c2ncccc2Cl,-1.4489346424
2-methoxy-2-methylbutane,CCC(C)(C)OC,-0.9795636765
1-hydroxy-1-phenylacetone,CC(=O)C(O)c1ccccc1,-1.1766034244
diammonium carbonate,N.N.OC(O)=O,-0.9826601144
trimethoxymethane,COC(OC)OC,-1.0258013338
"3,3,3-tribromo-2,2-dimethylpropan-1-ol",OCC(CBr)(CBr)CBr,-2.2261095189
"2-amino-4,5-dichlorobenzene-1-sulfonic acid",Nc1cc(Cl)c(Cl)cc1[S](O)(=O)=O,-2.1052106917
2-phenyl-1H-imidazole,[nH]1ccnc1c2ccccc2,-1.8893830404
strontium tartarate,[Sr].OC(C(O)C(O)=O)C(O)=O,-2.1065271998
2-[(2-nitrophenyl)amino]ethan-1-ol,OCCNc1ccccc1[N+]([O-])=O,-1.9933265855
"5-methyl-1,2-oxazole-4-carboxylate",Cc1oncc1C([O-])=O,-1.0553611102
"2,5,6-trimethylcyclohex-2-en-1-one",CC1CC=C(C)C(=O)C1C,-1.8852669619
"2-ethylhexanoic acid, manganese salt",[Mn++].CCCCC(CC)C(O)=O,-2.0439121671
"3-[(2-ethylhexyl)oxy]propane-1,2-diol",CCCCC(CC)COCC(O)CO,-2.0550171187
3-amino-4-chlorobenzamide,NC(=O)c1ccc(Cl)c(N)c1,-1.976703976
"N-(4-amino-3-methoxy-9,10-dioxo-9,10-dihydroanthracen-1-yl)benzenesulfonamide",COc1cc(N[S](=O)(=O)c2ccccc2)c3C(=O)c4ccccc4C(=O)c3c1N,-2.3558504459000003
"3-(oxiran-2-ylmethoxy)-N,N-bis(oxiran-2-ylmethyl)aniline",C1OC1COc2cccc(c2)N(CC3CO3)CC4CO4,-2.1925611892
benzene,c1ccccc1,-1.6423088751
"2,2,6,6-tetramethyl-N-{6-[(2,2,6,6-tetramethylpiperidin-4-yl)amino]hexyl}piperidin-4-amine",CC1(C)CC(CC(C)(C)N1)NCCCCCCNC2CC(C)(C)NC(C)(C)C2,-2.350745656
"2,4,7,9-tetramethyldec-5-yne-4,7-diol",CC(C)CC(C)(O)C#CC(C)(O)CC(C)C,-2.1243507639
butyl prop-2-enoate,CCCCOC(=O)C=C,-1.8773408513
4-(butoxymethyl)-2-methoxyphenol,CCCCOCc1ccc(O)c(OC)c1,-2.0948968063
"2,5-dichloroanilinium chloride",[H+].[Cl-].Nc1cc(Cl)ccc1Cl,-2.0750002801
disodium (2R)-2-(dodecanoyloxy)propane-1-sulfonate (2S)-2-(dodecanoyloxy)propane-1-sulfonate,[Na+].[Na+].CCCCCCCCCCCC(=O)O[C@@H](C)C[S]([O-])(=O)=O.CCCCCCCCCCCC(=O)O[C@H](C)C[S]([O-])(=O)=O,-2.6180468359
"2-(2-amino-1,3-thiazol-4-yl)acetic acid",Nc1scc(CC(O)=O)n1,-1.9816731181
"1'-(phenylmethyl)-[1,4'-bipiperidine]-4'-carbonitrile",N#CC1(CC[NH+](CC1)Cc2ccccc2)[NH+]3CCCCC3,-2.2459922106
3-(diethylamino)phenol,CCN(CC)c1cccc(O)c1,-2.0112787971
"2,3-bis(nitrooxy)propyl nitrate",[O-][N+](=O)OCC(CO[N+]([O-])=O)O[N+]([O-])=O,-2.1520684654
methyl 2-[(1E)-cyclopentylidene]acetate,COC(=O)C=C1CCCC1,-1.9425722692
diphenyl methylphosphonate,C[P](=O)(Oc1ccccc1)Oc2ccccc2,-2.2017086736
fluorobenzene,Fc1ccccc1,-1.7924097659
sodium heptadecyl sulfate,[Na+].CCCCCCCCCCCCCCCCCO[S]([O-])(=O)=O,-2.3669926669
"2,2-difluoroethanamine",NCC(F)F,0.5225303771
"[(2R,3R,4S,5R,6R)-3,4,5,6-tetrakis(acetyloxy)oxan-2-yl]methyl acetate",CC(=O)OCC1OC(OC(C)=O)C(OC(C)=O)C(OC(C)=O)C1OC(C)=O,-2.4153529113
"2,2-dimethyl-3-phenylpropan-1-ol",CC(C)(CO)Cc1ccccc1,-2.0423138216
2-phenyloxirane,C1OC1c2ccccc2,-1.9065411213
"tert-butyl 2,2-dimethylpropaneperoxoate",CC(C)(C)OOC(=O)C(C)(C)C,-2.067961594
tetraethyl silicate,CCO[Si](OCC)(OCC)OCC,-2.1455655454
3-methyl-2-[(2E)-pent-2-en-1-yl]cyclopent-2-en-1-one,CC\C=C/CC1=C(C)CCC1=O,-2.0452383746
2-chlorobenzaldehyde,Clc1ccccc1C=O,-1.9805722205
2-(butan-2-yl)phenol,CCC(C)c1ccccc1O,-2.0123777929
"2,2'-(octylimino)diethanol",CCCCCCCCN(CCO)CCO,-2.1910376032
5-nitroisophthalic acid,OC(=O)c1cc(cc(c1)[N+]([O-])=O)C(O)=O,-2.178419855
"sodium 1-amino-9,10-dihydro-4-[[4-[[(4-methylphenyl)sulphonyl]oxy]phenyl]amino]-9,10-dioxoanthracene-2-sulphonate",[Na+].Cc1ccc(cc1)[S](=O)(=O)Oc2ccc(Nc3cc(c(N)c4C(=O)c5ccccc5C(=O)c34)[S]([O-])(=O)=O)cc2,-2.6221984752000003
ethyl [(4-methylphenyl)sulfonyl]carbamate,CCOC(=O)N[S](=O)(=O)c1ccc(C)cc1,-2.2430987475
calcium bis(2-methyloctanoate),[Ca++].CCCCCCCCC([O-])=O.CCCCCCCCC([O-])=O,-2.412949573
(diethoxymethoxy)ethane,CCOC(OCC)OCC,-2.040520296
lithium(1+) ion fluoride,[Li+].[F-],-1.2901015882
"N,N-dimethylnonanamide",CCCCCCCCC(=O)N(C)C,-2.1440495587
1-isocyanato-4-(4-isocyanato-3-methylphenyl)-2-methylbenzene,Cc1cc(ccc1N=C=O)c2ccc(N=C=O)c(C)c2,-2.308127519
4-phenylbut-3-en-2-one,CC(=O)\C=C\c1ccccc1,-2.050971343
"5-(4-hydroxyphenyl)imidazolidine-2,4-dione",Oc1ccc(cc1)C2NC(=O)NC2=O,-2.1731049195
sodium 2-(dodecanoyloxy)ethanesulfonate,[Na+].CCCCCCCCCCCC(=O)OCC[S]([O-])(=O)=O,-2.4084792453
2-[(4-amino-2-nitrophenyl)amino]ethan-1-ol,Nc1ccc(NCCO)c(c1)[N+]([O-])=O,-2.1910899756
4-methyl-4-phenylpentan-2-ol,CC(O)CC(C)(C)c1ccccc1,-2.1472867242
naphthalen-1-ol,Oc1cccc2ccccc12,-2.0619739225
"2,3-dichloroaniline",Nc1cccc(Cl)c1Cl,-2.1303847013
5-chloro-2-methylaniline,Cc1ccc(Cl)cc1N,-2.0718850743
N-acetyl-N-[2-(N-acetylacetamido)ethyl]acetamide,CC(=O)N(CCN(C(C)=O)C(C)=O)C(C)=O,-2.2792257347
"[9-methyl-6-(propan-2-yl)-1,4-dioxaspiro[4.5]decan-2-yl]methanol",CC(C)C1CCC(C)CC12OCC(CO)O2,-2.2793855347
"disodium 5,5'-[propane-2,2-diylbis(4,1-phenyleneoxysulfonyl-2,1-phenylenediazene-2,1-diyl)]bis(6-amino-4-hydroxynaphthalene-2-sulfonate)",[Na+].[Na+].CC(C)(c1ccc(O[S](=O)(=O)c2cccc(NNC3=C4C(=O)C=C(C=C4C=CC3=N)[S](O)(=O)=O)c2)cc1)c5ccc(O[S](=O)(=O)c6cccc(NNC7=C8C(=O)C=C(C=C8C=CC7=N)[S](O)(=O)=O)c6)cc5,-2.9562873167
ethyl 2-phenylacetate,CCOC(=O)Cc1ccccc1,-2.1362024863
nitrogen oxide,[N-]=[N+]=O,-1.5643997258000002
"sodium 1-amino-4-({3-[(2-hydroxyethyl)sulfamoyl]-4,5-dimethylphenyl}amino)-9,10-dioxo-9,10-dihydroanthracene-2-sulfonate",[Na+].Cc1cc(Nc2cc(c(N)c3C(=O)c4ccccc4C(=O)c23)[S]([O-])(=O)=O)cc(c1C)[S](=O)(=O)NCCO,-2.6748435421
2-butyl-4-chloro-1H-imidazole-5-carbaldehyde,CCCCc1[nH]c(Cl)c(C=O)n1,-2.1991273723
(3Z)-hex-3-en-1-yl acetate,CC\C=C/CCOC(C)=O,-2.111500803
"1-butyl-6-hydroxy-4-methyl-2-oxo-1,2-dihydropyridine-3-carbonitrile",CCCCN1C(=O)C=C(C)C(=C1O)C#N,-2.2729907436000003
2-methoxy-4-propylphenol,CCCc1ccc(O)c(OC)c1,-2.1792905928
"3,4-dichlorobut-1-ene",ClCC(Cl)C=C,-2.0555103791
trilithium(1+) ion hexafluoroalumanetriuide,[Li+].[Li+].[Li+].[F-].[F-].[F-].[F-].[F-].[F-].[Al+3],-2.1675670427
1-octylpyrrolidin-2-one,CCCCCCCCN1CCCC1=O,-2.2577490108
(E)-N-(5-methylheptan-3-ylidene)hydroxylamine,CCC(C)C\C(CC)=N\O,-2.1307281267
"N,N-dimethyl-3,3-diphenyloxolan-2-iminium bromide",[Br-].C[N+](C)=C1OCCC1(c2ccccc2)c3ccccc3,-2.5265751338
"2-bromo-3,3,3-trifluoroprop-1-ene",FC(F)(F)C(Br)=C,-2.2385851258
3-(4-methoxyphenyl)-2-methylpropanal,COc1ccc(CC(C)C=O)cc1,-2.24666187
"N-(2,4,4-trimethylpentan-2-yl)prop-2-enamide",CC(C)(C)CC(C)(C)NC(=O)C=C,-2.2588292445
"1,1,1,2-tetrafluoroethane",FCC(F)(F)F,-2.0087278867
2-amino-5-chloro-4-methylbenzene-1-sulfonic acid,Cc1cc(N)c(cc1Cl)[S](O)(=O)=O,-2.3456971252
ethyl 3-methyl-3-phenyloxirane-2-carboxylate,CCOC(=O)C1OC1(C)c2ccccc2,-2.3143750058
molybdenum trioxide,O=[Mo](=O)=O,-2.1581724467
"sodium 1-amino-9,10-dioxo-4-[(3-propanamidophenyl)amino]-9,10-dihydroanthracene-2-sulfonate",[Na+].CCC(=O)Nc1cccc(Nc2cc(c(N)c3C(=O)c4ccccc4C(=O)c23)[S]([O-])(=O)=O)c1,-2.6879470025
4-chloro-2-(trifluoromethyl)aniline,Nc1ccc(Cl)cc1C(F)(F)F,-2.2934813757
bis(trimethylsilyl)amine,C[Si](C)(C)N[Si](C)(C)C,-2.2100723772
2-tert-butylphenol,CC(C)(C)c1ccccc1O,-2.1899589144
"2,6-dimethyloct-7-en-2-ol",CC(CCCC(C)(C)O)C=C,-2.2212072407
"3-(2H-1,3-benzodioxol-5-yl)-2-methylpropanal",CC(Cc1ccc2OCOc2c1)C=O,-2.3134381403
2-chlorobutane,CCC(C)Cl,-2.0012638712
palladium(2+) ion diacetate,[Pd++].CC([O-])=O.CC([O-])=O,-2.3865009
4-methyl-2-(2-methylprop-1-en-1-yl)oxane,CC1CCOC(C1)C=C(C)C,-2.2244457918
2-ethylhexan-1-ol,CCCCC(CC)CO,-2.1604718659
6-methyloct-5-en-2-one,CC\C(C)=C\CCC(C)=O,-2.1925860364
sodium 4-[[4-[(4-hydroxy-2-methylphenyl)azo]phenyl]amino]-3-nitrobenzenesulphonate,[Na+].CC/1=CC(=O)C=CC1=N/Nc2ccc(Nc3ccc(cc3[N+]([O-])=O)[S]([O-])(=O)=O)cc2,-2.6993635863
"furan-2,5-dicarboxylic acid",OC(=O)c1oc(cc1)C(O)=O,-2.2396237358
"2,3-dichlorobenzoic acid",OC(=O)c1cccc(Cl)c1Cl,-2.3316729189
2-amino-4-chloro-5-methylbenzenesulfonic acid,Cc1cc(c(N)cc1Cl)[S](O)(=O)=O,-2.4061778726
N-(2-chlorophenyl)-3-oxobutanamide,CC(=O)CC(=O)Nc1ccccc1Cl,-2.4065360765
4-bromophenyl acetate,CC(=O)Oc1ccc(Br)cc1,-2.4166041571
"2,4-diethyl-3-propylpentane-1,5-diol; 2,4-diethyloctan-1-ol; 2-ethylhexan-1-ol; 2-ethylhexane-1,3-diol",CCCCC(CC)CO.CCCCC(CC)CC(CC)CO.CCCC(O)C(CC)CO.CCCC(C(CC)CO)C(CC)CO,-2.9252846689
"naphthalene-1,8-diamine",Nc1cccc2cccc(N)c12,-2.3071228572
"buta-1,3-diene",C=CC=C,-1.8668457003
2-nitro-4-(trifluoromethyl)benzonitrile,[O-][N+](=O)c1cc(ccc1C#N)C(F)(F)F,-2.4707735629
"6,8,9-trinitro-2,4-dioxa-3-plumbabicyclo[3.3.1]nona-1(9),5,7-triene",[Pb++].[O-]c1c(cc(c([O-])c1[N+]([O-])=O)[N+]([O-])=O)[N+]([O-])=O,-2.8083913688
2-ethylhex-2-enal,CCC\C=C(/CC)C=O,-2.2559578736000003
2-ethylhexanal,CCCCC(CC)C=O,-2.2628407967
"3,5,5-trimethylhexanoic acid",CC(CC(O)=O)CC(C)(C)C,-2.3542209788
"3-oxo-N-(2-oxo-2,3-dihydro-1H-1,3-benzodiazol-5-yl)butanamide",CC(=O)CC(=O)Nc1ccc2NC(=O)Nc2c1,-2.522680786
"5-amino-2,3-dihydro-1H-1,3-benzodiazol-2-one",Nc1ccc2NC(=O)Nc2c1,-2.3347829023
"2-butyl-4,4,6-trimethyl-1,3-dioxane",CCCCC1OC(C)CC(C)(C)O1,-2.4532973596
2-methyl-1-phenylpropan-1-one,CC(C)C(=O)c1ccccc1,-2.35661526
3-amino-2-hydroxy-5-nitrobenzoic acid,Nc1cc(cc(C(O)=O)c1O)[N+]([O-])=O,-2.4907790333
diamminedichloropalladium,N.N.[Cl-].[Cl-].[Pd++],-2.5257397803
"trimethoxy(3,3,4,4,5,5,6,6,7,7,8,8,8-tridecafluorooctyl)silane",CO[Si](CCC(F)(F)C(F)(F)C(F)(F)C(F)(F)C(F)(F)C(F)(F)F)(OC)OC,-2.8923562141000003
"4-amino-5-methoxy-N,2-dimethylbenzenesulfonamide",CN[S](=O)(=O)c1cc(OC)c(N)cc1C,-2.5769433589
4-tert-butylphenol,CC(C)(C)c1ccc(O)cc1,-2.3914008137
"2,3,4-trichlorobut-1-ene",ClCC(Cl)C(Cl)=C,-2.4244542069
ethyl 2-methylbutanoate,CCOC(=O)C(C)CC,-2.3364163689
4-tert-butylcyclohexan-1-one,CC(C)(C)C1CCC(=O)CC1,-2.4173816076
"(1S-endo)-1,7,7-trimethylbicyclo[2.2.1]heptan-2-ol",CC1(C)[C@@H]2CC[C@]1(C)[C@H](O)C2,-2.4205583952
"3,4-dichloroaniline",Nc1ccc(Cl)c(Cl)c1,-2.4461379538
magnesium hydrogenorthophosphate,[Mg++].O[P]([O-])([O-])=O,0.2641880223
"1,6-bis[2-(2-butoxyethoxy)ethyl] hexanedioate",CCCCOCCOCCOC(=O)CCCCC(=O)OCCOCCOCCCC,-2.8821848864
1-methoxy-4-methylbenzene,COc1ccc(C)cc1,-2.3395421013
N-[3-(morpholin-4-yl)propyl]naphthalen-1-amine,C(CNc1cccc2ccccc12)CN3CCOCC3,-2.702803349
2-phenylphenol,Oc1ccccc1c2ccccc2,-2.5067117536000003
2-(2-methylbutan-2-yl)phenol,CCC(C)(C)c1ccccc1O,-2.4912242204
trimethoxy-(6-trimethoxysilylhexyl)silane,CO[Si](CCCCCC[Si](OC)(OC)OC)(OC)OC,-2.7929479843
"[(1S,2S,3S,5R)-2,6,6-trimethylbicyclo[3.1.1]heptan-3-yl]methanamine",C[C@@H]1[C@@H](CN)C[C@H]2C[C@@H]1C2(C)C,-2.5159153811
"2,6-dimethylhept-5-enal",CC(CCC=C(C)C)C=O,-2.4478585415
2-({2-[bis(carboxymethyl)amino]ethyl}(carboxymethyl)amino)acetic acid,OC(=O)CN(CCN(CC(O)=O)CC(O)=O)CC(O)=O,-2.7667755992000003
6'-methoxycinchonan-9-ol,COc1ccc2nccc([C@@H](O)[C@@H]3CC4CCN3C[C@@H]4C=C)c2c1,-2.8121429703
6'-methoxycinchonan-9-ol,COc1ccc2nccc([C@H](O)[C@H]3C[C@@H]4CCN3C[C@@H]4C=C)c2c1,-2.8121429703
N-dodecanoyl-N-methylglycine,CCCCCCCCCCCC(=O)N(C)CC(O)=O,-2.7346414392
isobutyl 2-chloropropanoate,CC(C)COC(=O)[C@H](C)Cl,-2.5175442498
(2E)-2-methyl-3-phenylprop-2-enal,C/C(C=O)=C/c1ccccc1,-2.4747186153
4-methylene-2-(2-methylprop-1-en-1-yl)tetrahydro-2H-pyran,CC(C)=CC1CC(=C)CCO1,-2.5104223592
ethyl 2-methylpentanoate,CCCC(C)C(=O)OCC,-2.4896905423
tert-butyl methacrylate,CC(=C)C(=O)OC(C)(C)C,-2.4863755076
1-(ethenyloxy)butane,CCCCOC=C,-2.3379408202
N-butylbenzenesulfonamide,CCCCN[S](=O)(=O)c1ccccc1,-2.6757824138
"2,2,6-trimethyl-6-vinyltetrahydro-2H-pyran",CC1(C)CCCC(C)(O1)C=C,-2.5359872782
"2,3,3-trimethyl-3H-indole-5-carboxylic acid",CC1=Nc2ccc(cc2C1(C)C)C(O)=O,-2.6625890537
2-methylcyclohexyl acetate,CC1CCCCC1OC(C)=O,-2.5502978569
1-chloro-2-nitrobenzene,[O-][N+](=O)c1ccccc1Cl,-2.5639664909
2-ethylhexyl 2-hydroxypropanoate,CCCCC(CC)COC(=O)C(C)O,-2.6735257097
bromobenzene,Brc1ccccc1,-2.568561457
trisodium hexafluoroalumanetriuide,[F-].[F-].[F-].[F-].[F-].[F-].[Na+].[Na+].[Na+].[Al+3],-2.6988459025
1-methyl-4-nitrobenzene,Cc1ccc(cc1)[N+]([O-])=O,-2.5149437885
2-methoxy-4-(prop-2-en-1-yl)phenyl acetate,COc1cc(CC=C)ccc1OC(C)=O,-2.7015911491000004
2-methylbut-2-ene,CC=C(C)C,-2.2331509446
"[(2S,4R)-2-(2,4-dichlorophenyl)-2-(1H-1,2,4-triazol-1-ylmethyl)-1,3-dioxolan-4-yl]methanol",OC[C@@H]1CO[C@](Cn2cncn2)(O1)c3ccc(Cl)cc3Cl,-2.9059550684
butyl 2-methylprop-2-enoate,CCCCOC(=O)C(C)=C,-2.5443674546
Neohesperidin dihydrochalone,COc1ccc(CCC(=O)c2c(O)cc(O[C@@H]3O[C@H](CO)[C@@H](O)[C@H](O)[C@H]3O[C@@H]4O[C@@H](C)[C@H](O)[C@@H](O)[C@H]4O)cc2O)cc1O,-3.1851035311
"3,5,5-trimethylhexan-1-ol",CC(CCO)CC(C)(C)C,-2.5570799155
5-chloro-2-nitrophenol,Oc1cc(Cl)ccc1[N+]([O-])=O,-2.6373771386
chlorobenzene,Clc1ccccc1,-2.4493202347
"ethyl 1,3-dioxo-1,3-dihydro-2H-isoindole-2-carboxylate",CCOC(=O)N1C(=O)c2ccccc2C1=O,-2.7387726333
3-methyl-5-phenylpentan-1-ol,CC(CCO)CCc1ccccc1,-2.6600258381
"N-decyl-N,N-dimethyldecan-1-aminium chloride",[Cl-].CCCCCCCCCC[N+](C)(C)CCCCCCCCCC,-2.9677471262
1-[bis(4-fluorophenyl)methyl]piperazine,Fc1ccc(cc1)C([NH+]2CC[NH2+]CC2)c3ccc(F)cc3,-2.8786010762
"(phosphonooxy)phosphonic acid; 1,3,5-triazine-2,4,6-triamine",Nc1nc(N)nc(N)n1.O[P](O)(=O)O[P](O)(O)=O,-2.9089794399
2-[(4-methyl-2-nitrophenyl)amino]ethan-1-ol,Cc1ccc(NCCO)c(c1)[N+]([O-])=O,-2.7474051676
(ethenyloxy)cyclohexane,C=COC1CCCCC1,-2.5825419737
"1,4-bis(vinyloxy)butane",C=COCCCCOC=C,-2.6477435098
6-amino-4-hydroxynaphthalene-2-sulfonic acid,Nc1ccc2cc(cc(O)c2c1)[S](O)(=O)=O,-2.8833112394
"disodium 4,5-dichloro-2-[(E)-2-[3-methyl-5-oxo-1-(3-sulfonatophenyl)-4,5-dihydro-1H-pyrazol-4-yl]diazen-1-yl]benzene-1-sulfonate",[Na+].[Na+].CC1=NN(c2cccc(c2)[S]([O-])(=O)=O)C(=O)C1N=Nc3cc(Cl)c(Cl)cc3[S]([O-])(=O)=O,-3.2642643745
"1,2,3,4-tetrahydronaphthalene; 1,3,5-trimethylbenzene; 1,4-diethylbenzene; 1H-indene; 2,3-dihydro-1H-indene; benzene; naphthalene; propan-2-ylbenzene; toluene",CCc1ccc(CC)cc1.CC(C)c2ccccc2.Cc3ccccc3.Cc4cc(C)cc(C)c4.C5CCc6ccccc6C5.C7Cc8ccccc8C7.C9C=Cc%10ccccc9%10.c%11ccccc%11.c%12ccc%13ccccc%13c%12,-3.5397404208
"1,3-xylene; cyclopentane; ethylbenzene; pentane; toluene",CCCCC.CCc1ccccc1.Cc2ccccc2.Cc3cccc(C)c3.C4CCCC4,-3.1729559438
"2-phenyl-1H-1,3-benzodiazole-5-sulfonic acid",O[S](=O)(=O)c1ccc2nc([nH]c2c1)c3ccccc3,-2.9611061362
benzene; ethenylbenzene; toluene,Cc1ccccc1.C=Cc2ccccc2.c3ccccc3,-2.9612739311
manganese(2+) ion oxalate,[Mn++].[O-]C(=O)C([O-])=O,-2.6780811331
trilithium(1+) ion phosphate,[Li+].[Li+].[Li+].[O-][P]([O-])([O-])=O,-2.5909258566
"6-methoxy-1,2,3,4-tetrahydronaphthalene",COc1ccc2CCCCc2c1,-2.7477385243
"naphthalene-1,5-diamine",Nc1cccc2c(N)cccc12,-2.7678536958
4-cyclohexylbutan-2-ol,CC(O)CCC1CCCCC1,-2.7673615716000004
barium tartarate,[Ba++].OC(C(O)C([O-])=O)C([O-])=O,-3.0523304042
"1,1'-[methylenebis(oxy)]dibutane",CCCCOCOCCCC,-2.8068769998
cinchonan-9-ol,O[C@H]([C@H]1C[C@@H]2CCN1C[C@@H]2C=C)c3ccnc4ccccc34,-3.0887236136
hexadecyltrimethylazanium chloride,[Cl-].CCCCCCCCCCCCCCCC[N+](C)(C)C,-3.1249455224
"6-[(3-{[(6-carboxycyclohex-3-en-1-yl)carbonyl]oxy}-2,2-dimethylpropoxy)carbonyl]cyclohex-3-ene-1-carboxylate",CC1(C)COC(=O)C2CC=CCC2C(=O)OC1,-3.0041810563
Neomenthol,CC(C)[C@H]1CC[C@@H](C)CC1O,-2.8302608531
"methyl 2,6,6-trimethylcyclohex-2-ene-1-carboxylate",COC(=O)C1C(=CCCC1(C)C)C,-2.9085159963
"3,3-dimethylbut-1-yne",CC(C)(C)C#C,-2.6135564252
"N,N-dimethyl-N-tetradecyltetradecan-1-aminium chloride",[Cl-].CCCCCCCCCCCCCC[N+](C)(C)CCCCCCCCCCCCCC,-3.3750249603
2-phenoxyethyl 2-methylpropanoate,CC(C)C(=O)OCCOc1ccccc1,-3.0263435366
7-amino-3-methyl-8-oxo-5-thia-1-azabicyclo[4.2.0]oct-2-ene-2-carboxylic acid,CC1=C(N2C(SC1)C(N)C2=O)C(O)=O,-3.0453554133
2-hydroxy-4-methylbenzamide,Cc1ccc(C(N)=O)c(O)c1,-2.9170001587
"6-chloro-2,3-dihydro-1H-indol-2-one",Clc1ccc2CC(=O)Nc2c1,-2.9689885527
2-benzyl-2-methylbut-3-enenitrile,CC(Cc1ccccc1)(C=C)C#N,-3.0006167172
"1,4-dibutyl (2Z)-but-2-enedioate",CCCCOC(=O)\C=C/C(=O)OCCCC,-3.1280341619
2-amino-3-[(2-amino-2-carboxyethyl)disulfanyl]propanoic acid,N[C@@H](CSSC[C@H](N)C(O)=O)C(O)=O,-3.1599219868
methyl 2-ethylhexanoate,CCCCC(CC)C(=O)OC,-2.9898040042000003
cyclohexene,C1CCC=CC1,-2.7104664382
"3-(2-hydroxyethyl)-1,2,3,4-tetrahydroquinazoline-2,4-dione",OCCN1C(=O)Nc2ccccc2C1=O,-3.1128936428
5-heptyloxolan-2-one,CCCCCCC[C@H]1CCC(=O)O1,-3.0668187599000003
calcium dihydrate hydrogen phosphate,[Ca++].O[P]([O-])([O-])=O,-2.9490262679000003
pent-1-ene,CCCC=C,-2.6756730859
2-{[(2-ethylhexyl)oxy]methyl}oxirane,CCCCC(CC)COCC1CO1,-3.1148651615
boron(3+) ion phosphate,O=[P]12OB(O1)O2,-2.8690757364
"1-(2,4-dichlorophenyl)-2-(1H-imidazol-1-yl)ethan-1-ol",OC(Cn1ccnc1)c2ccc(Cl)cc2Cl,-3.2640078237
bis[(2-ethylhexyl)oxy]phosphinic acid,CCCCC(CC)CO[P](O)(=O)OCC(CC)CCCC,-3.3623020198
"disodium 5-{[bis(phenylamino)-1,3,5-triazin-2-yl]amino}-2-[(E)-2-(4-{[bis(phenylamino)-1,3,5-triazin-2-yl]amino}-2-sulfonatophenyl)ethenyl]benzene-1-sulfonate",[Na+].[Na+].[O-][S](=O)(=O)c1cc(Nc2nc(Nc3ccccc3)nc(Nc4ccccc4)n2)ccc1\C=C\c5ccc(Nc6nc(Nc7ccccc7)nc(Nc8ccccc8)n6)cc5[S]([O-])(=O)=O,-3.8255874528
12-aminododecanoic acid,[NH3+]CCCCCCCCCCCC([O-])=O,-3.1963980912
2-isobutyl-4-methyltetrahydro-2H-pyran,CC(C)CC1CC(C)CCO1,-3.0799294807
"4,4'-disulfanediyldimorpholine",C1CN(CCO1)SSN2CCOCC2,-3.2596343038
"5-bromo-1,2,3-trifluorobenzene",Fc1cc(Br)cc(F)c1F,-3.2102979357
4-[(morpholin-4-ylcarbonothioyl)sulfanyl]morpholine,S=C(SN1CCOCC1)N2CCOCC2,-3.2913006621
N-(1-benzylpiperidin-4-yl)-N-phenylpropanamide,CCC(=O)N(C1CCN(CC1)Cc2ccccc2)c3ccccc3,-3.4150433898
"2-tert-butyl-4,6-dimethylphenol",Cc1cc(C)c(O)c(c1)C(C)(C)C,-3.1719091991000004
"4-methyl-2,3-dihydro-1H-1,3-benzodiazole-2-thione; 5-methyl-2,3-dihydro-1H-1,3-benzodiazole-2-thione",Cc1cccc2NC(=S)Nc12,-3.13627918
pentasodium decanoic acid dodecanoic acid 2-(decanoyloxy)propanoate 2-(dodecanoyloxy)propanoate 2-hydroxypropanoate decanoate dodecanoate,[Na+].[Na+].[Na+].[Na+].[Na+].CCCCCCCCCCCC(O)=O.CCCCCCCCCCCC([O-])=O.CCCCCCCCCCCC(=O)OC(C)C([O-])=O.CCCCCCCCCC(O)=O.CCCCCCCCCC([O-])=O.CCCCCCCCCC(=O)OC(C)C([O-])=O.CC(O)C([O-])=O,-4.0857316668
undecanal,CCCCCCCCCCC=O,-3.1520232011
"1,2-dichloro-4-(trifluoromethyl)benzene",FC(F)(F)c1ccc(Cl)c(Cl)c1,-3.2679824907
1-(4-{2-[4-(2-hydroxypropoxy)phenyl]propan-2-yl}phenoxy)propan-2-ol,CC(O)COc1ccc(cc1)C(C)(C)c2ccc(OCC(C)O)cc2,-3.499700952
2-bromobutane,CCC(C)Br,-3.1114780979
2-methylpropyl 2-phenylacetate,CC(C)COC(=O)Cc1ccccc1,-3.2710471955