Name,SMILES,Solubility
2-nitroso-1-naphthol,Oc1c(ccc2ccccc12)N=O,-2.5395
di-i-propylnitrosoamine,CC(C)N(N=O)C(C)C,-1.0006
n-nitrosodipropylamine,CCCN(CCC)N=O,-1.0006
n-nitrosodibutylamine,CCCCN(CCCC)N=O,-2.0955
n-nitrosoethyl-n-butylamine,CCCCN(CC)N=O,-1.0354
n-nitroso-n-methylbutylamine,CCCCN(C)N=O,-0.6996
n-methyl-n-nitrosoethamine,CCN(C)N=O,0.5321
4-bromobiphenyl,Brc1ccc(cc1)c2ccccc2,-5.5526
"4-methyl-1,1'-biphenyl",Cc1ccc(cc1)c2ccccc2,-4.6185
"3,3'-dichlorobiphenyl",Clc1cccc(c1)c2cccc(Cl)c2,-5.7983
"4,4'-dichlorobiphenyl",Clc1ccc(cc1)c2ccc(Cl)cc2,-6.5561
2-chlorobiphenyl,Clc1ccccc1c2ccccc2,-4.5917
"3,4-dichlorobiphenyl",Clc1ccc(cc1Cl)c2ccccc2,-6.3899
"2,2'-dichlorobiphenyl",Clc1ccccc1c2ccccc2Cl,-5.0813
"2,2',6,6'-pcb",Clc1cccc(Cl)c1c2c(Cl)cccc2Cl,-7.3898
"2,3-dichlorobiphenyl",Clc1cccc(c2ccccc2)c1Cl,-5.3498
"2,3,4,5,6-pcb",Clc1c(Cl)c(Cl)c(c2ccccc2)c(Cl)c1Cl,-7.9107
"2,3'-pcb",Clc1cccc(c1)c2ccccc2Cl,-5.5851
"2',3,4,4',5'-pcb",Clc1ccc(cc1Cl)c2cc(Cl)c(Cl)cc2Cl,-7.3867
"2,3',4,4'-tetrachlorobiphenyl",Clc1ccc(c(Cl)c1)c2ccc(Cl)c(Cl)c2,-6.8995
"2,3',4',5-pcb",Clc1ccc(Cl)c(c1)c2ccc(Cl)c(Cl)c2,-6.8526
"2,4,4',5-pcb",Clc1ccc(cc1)c2cc(Cl)c(Cl)cc2Cl,-7.7699
"2,3,4,4'-pcb",Clc1ccc(cc1)c2ccc(Cl)c(Cl)c2Cl,-6.8754
"2,4-dichlorobiphenyl",Clc1ccc(c(Cl)c1)c2ccccc2,-5.2878
"2,5-dichlorobiphenyl",Clc1ccc(Cl)c(c1)c2ccccc2,-5.2993
"2,4'-dichlorobiphenyl",Clc1ccc(cc1)c2ccccc2Cl,-5.2803
"2,2',3,4,4',5'-hexachlorobiphenyl",Clc1ccc(c(Cl)c1Cl)c2cc(Cl)c(Cl)cc2Cl,-8.3813
hexabromobiphenyl,Brc1ccc(c(Br)c1Br)c2ccc(Br)c(Br)c2Br,-7.7563
"2,2',4-trichlorobiphenyl",Clc1ccc(c(Cl)c1)c2ccccc2Cl,-6.4902
"2,4,5,2',5'-pcb",Clc1ccc(Cl)c(c1)c2cc(Cl)c(Cl)cc2Cl,-7.3263
"2,2',3,5',6-pcb",Clc1ccc(Cl)c(c1)c2c(Cl)ccc(Cl)c2Cl,-7.1895
"2,2',4,4',5-pentachlorobiphenyl",Clc1ccc(c(Cl)c1)c2cc(Cl)c(Cl)cc2Cl,-7.9503
"2,3,3',4',6-pentachlorobiphenyl",Clc1ccc(cc1Cl)c2c(Cl)ccc(Cl)c2Cl,-7.6499
"2,2',3,3',6,6'-hexachlorobiphenyl",Clc1ccc(Cl)c(c1Cl)c2c(Cl)ccc(Cl)c2Cl,-7.9032
"2,2',6-pcb",Clc1ccccc1c2c(Cl)cccc2Cl,-5.9003
"2,4',6-trichlorobiphenyl",Clc1ccc(cc1)c2c(Cl)cccc2Cl,-6.2095
"2,2',3'-pcb",Clc1cccc(c1Cl)c2ccccc2Cl,-5.944
"2,3',5-pcb",Clc1cccc(c1)c2cc(Cl)ccc2Cl,-6.0077
"2',3,4-trichlorobiphenyl",Clc1ccc(cc1Cl)c2ccccc2Cl,-6.287000000000001
"3,4,4'-trichlorobiphenyl",Clc1ccc(cc1)c2ccc(Cl)c(Cl)c2,-6.5541
"2,2',3,3'-tetrachlorobiphenyl",Clc1cccc(c1Cl)c2cccc(Cl)c2Cl,-7.2722
"2,2',3,5'-tetrachlorobiphenyl",Clc1ccc(Cl)c(c1)c2cccc(Cl)c2Cl,-6.4654
"2,2',3,4-tetrachlorobiphenyl",Clc1ccc(c(Cl)c1Cl)c2ccccc2Cl,-6.8299
"2,2',3,5,5'-pentachlorobiphenyl",Clc1ccc(Cl)c(c1)c2cc(Cl)cc(Cl)c2Cl,-7.8201
"2,2',3,3',5,6'-hexachlorobiphenyl",Clc1cc(Cl)c(Cl)c(c1)c2c(Cl)ccc(Cl)c2Cl,-7.8218
"2,2',3,3',4,5-hexachlorobiphenyl",Clc1cccc(c1Cl)c2cc(Cl)c(Cl)c(Cl)c2Cl,-8.4206
benzamide,NC(=O)c1ccccc1,-0.953
"2-methyl-1,4-naphthoquinone",CC1=CC(=O)c2ccccc2C1=O,-3.0319
alpha-chlorotoluene,ClCc1ccccc1,-2.3822
thioanisole,CSc1ccccc1,-2.39
formanilide,O=CNc1ccccc1,-0.6785
phenylisothiocyanate,S=C=Nc1ccccc1,-3.1772
2-chloroacetanilide,CC(=O)Nc1ccccc1Cl,-1.4001
3-methylacetanilide,CC(=O)Nc1cccc(C)c1,-2.091
2-nitroacetanilide,CC(=O)Nc1ccccc1[N+]([O-])=O,-1.9093
benzylisothiocyanate,S=C=NCc1ccccc1,-3.1364
"5,6,7,8-tetrahydro-2-naphthol",Oc1ccc2CCCCc2c1,-1.9948
"2,6-dichlorobenzamide",NC(=O)c1c(Cl)cccc1Cl,-1.8427
3-methyl-4'-nitrodiphenyl ether,Cc1cccc(Oc2ccc(cc2)[N+]([O-])=O)c1,-4.6613
n-(ethylaminomethyl)benzamide,CCNCNC(=O)c1ccccc1,-0.0749
phenylpropylmethylamine,CNCC(C)c1ccccc1,-1.0947
n-nitrosopiperidine,O=NN1CCCCC1,-0.1738
azobenzene,c1ccc(cc1)N=Nc2ccccc2,-4.4544
cocaine,COC(=O)[C@H]1[C@H](CC2CCC1N2C)OC(=O)c3ccccc3,-2.2267
imipramine,CN(C)CCCN1c2ccccc2CCc3ccccc13,-4.187
trimethyl phosphate,CO[P](=O)(OC)OC,0.5526
diisopropyl methylphosphonate,CC(C)O[P](C)(=O)OC(C)C,-0.0516
benzylurea,NC(=O)NCc1ccccc1,-0.9462
benzenesulfonamide,N[S](=O)(=O)c1ccccc1,-1.5630000000000002
m-methylbenzenesulfonamide,Cc1cccc(c1)[S](N)(=O)=O,-1.3409
cyclophosphamide,ClCCN(CCCl)[P]1(=O)NCCCO1,-0.8147
"p,p'-ddt",Clc1ccc(cc1)C(c2ccc(Cl)cc2)C(Cl)(Cl)Cl,-7.8092
fenthion,CO[P](=S)(OC)Oc1ccc(SC)c(C)c1,-4.5695
dimethoate,CNC(=O)CS[P](=S)(OC)OC,-0.9624
"p,p'-dde",Clc1ccc(cc1)C(=C(Cl)Cl)c2ccc(Cl)cc2,-6.9004
"2,4-dichlorophenoxyacetic acid",OC(=O)COc1ccc(Cl)cc1Cl,-2.5139
dichlofenthion,CCO[P](=S)(OCC)Oc1ccc(Cl)cc1Cl,-6.1094
chlorpropham,CC(C)OC(=O)Nc1cccc(Cl)c1,-3.3804
fenuron,CN(C)C(=O)Nc1ccccc1,-1.6101
"dcip  (2,2'-oxybis-1-chloropropane)",CC(CCl)OC(C)CCl,-2.0027
dicofol,OC(c1ccc(Cl)cc1)(c2ccc(Cl)cc2)C(Cl)(Cl)Cl,-5.6657
dichlorprop,CC(Oc1ccc(Cl)cc1Cl)C(O)=O,-2.8271
malathion,CCOC(=O)CC(S[P](=S)(OC)OC)C(=O)OCC,-3.3637
isopropyl phenyl carbamate,CC(C)OC(=O)Nc1ccccc1,-3.0005
phorate,CCO[P](=S)(OCC)SCSCC,-3.7166
disulfoton,CCO[P](=S)(OCC)SCCSCC,-4.2262
ronnel,CO[P](=S)(OC)Oc1cc(Cl)c(Cl)cc1Cl,-5.5072
dmpa,CO[P](=S)(NC(C)C)Oc1ccc(Cl)cc1Cl,-4.7982
crufomate,CN[P](=O)(OC)Oc1ccc(cc1Cl)C(C)(C)C,-3.1639
naled,CO[P](=O)(OC)OC(Br)C(Cl)(Cl)Br,-2.2797
paraoxon,CCO[P](=O)(OCC)Oc1ccc(cc1)[N+]([O-])=O,-2.0594
trichloronate,CCO[P](=S)(CC)Oc1cc(Cl)c(Cl)cc1Cl,-5.7524
diuron,CN(C)C(=O)Nc1ccc(Cl)c(Cl)c1,-3.7443
linuron,CON(C)C(=O)Nc1ccc(Cl)c(Cl)c1,-3.5213
chlorfenvinphos,CCO[P](=O)(OCC)OC(=C\Cl)/c1ccc(Cl)cc1Cl,-3.4624
3-chloro-dimethyl parathion,CO[P](=S)(OC)Oc1ccc(c(Cl)c1)[N+]([O-])=O,-3.8717
neburon,CCCCN(C)C(=O)Nc1ccc(Cl)c(Cl)c1,-4.7584
o-butyl carbamate,CCCCOC(N)=O,-0.6571
o-methyl carbamate,COC(N)=O,0.964
o-propylcarbamate,CCCOC(N)=O,-0.1302
propanil,CCC(=O)Nc1ccc(Cl)c(Cl)c1,-2.9864
carbophenothion-methyl,CO[P](=S)(OC)SCSc1ccc(Cl)cc1,-5.2939
n-methyl-m-tolylcarbamate,CNC(=O)Oc1cccc(C)c1,-1.803
chlorothanonil,Clc1c(Cl)c(C#N)c(Cl)c(C#N)c1Cl,-5.6466
epn,CCO[P](=S)(Oc1ccc(cc1)[N+]([O-])=O)c2ccccc2,-5.0169
bromophos,CO[P](=S)(OC)Oc1cc(Cl)c(Br)cc1Cl,-6.0864
fluometuron,CN(C)C(=O)Nc1cccc(c1)C(F)(F)F,-3.4365
molinate,CCSC(=O)N1CCCCCC1,-2.2858
solan,CCCC(C)C(=O)Nc1ccc(C)c(Cl)c1,-4.4503
3-i-pr-5-mephenyl-n-me carbamate,CNC(=O)Oc1cc(C)cc(c1)C(C)C,-3.3575
n-methyl-2-isopropylphenylcarbam,CNC(=O)Oc1ccccc1C(C)C,-2.6841
cyanophos,CO[P](=S)(OC)Oc1ccc(cc1)C#N,-3.7232
"3,5-Xylyl methylcarbamate",CNC(=O)Oc1cc(C)cc(C)c1,-2.5813
metobromuron,CON(C)C(=O)Nc1ccc(Br)cc1,-2.895
abate,CO[P](=S)(OC)Oc1ccc(Sc2ccc(O[P](=S)(OC)OC)cc2)cc1,-6.2375
buturon,CC(C#C)N(C)C(=O)Nc1ccc(Cl)cc1,-3.8971
salithion,CO[P]1(=S)OCc2ccccc2O1,-3.5714
bromophos ethyl,CCO[P](=S)(OCC)Oc1cc(Cl)c(Br)cc1Cl,-5.9521
monalide,CCCC(C)(C)C(=O)Nc1ccc(Cl)cc1,-4.0218
propaphos,CCCO[P](=O)(OCCC)Oc1ccc(SC)cc1,-3.3865
cyanofenphos,CCO[P](=S)(Oc1ccc(cc1)C#N)c2ccccc2,-5.7037
terbufos,CCO[P](=S)(OCC)SCSC(C)(C)C,-4.755
chlorbromuron,CON(C)C(=O)Nc1ccc(Br)c(Cl)c1,-3.9236
chlortoluron,CN(C)C(=O)Nc1ccc(C)c(Cl)c1,-3.4826
edifenphos,CCO[P](=O)(Sc1ccccc1)Sc2ccccc2,-3.3305
iodofenphos,CO[P](=S)(OC)Oc1cc(Cl)c(I)cc1Cl,-6.6160000000000005
leptophos,CO[P](=S)(Oc1cc(Cl)c(Br)cc1Cl)c2ccccc2,-7.1379
fenamiphos,CCO[P](=O)(NC(C)C)Oc1ccc(SC)c(C)c1,-2.9648
piperophos,CCCO[P](=S)(OCCC)SCC(=O)N1CCCCC1C,-4.1504
isofenphos,CCO[P](=S)(NC(C)C)Oc1ccccc1C(=O)OC(C)C,-4.1939
iprobenfos,CC(C)O[P](=O)(OC(C)C)SCc1ccccc1,-2.8579
thiobencarb,CCN(CC)C(=O)SCc1ccc(Cl)cc1,-3.9641
fenvalerate,CC(C)C(C(=O)OC(C#N)c1cccc(Oc2ccccc2)c1)c3ccc(Cl)cc3,-7.2429
propylamine,CCCN,1.2283
acetaldehyde,CC=O,1.3561
n-nitrosodimethylamine,CN(C)N=O,1.1303
pyridine oxide,[O-][n+]1ccccc1,1.0218
dimethyl disulfide,CSSC,-1.4969
"2,3-dimethylpyridine",Cc1cccnc1C,0.0938
"2,4-dimethylpyridine",Cc1ccnc(C)c1,0.4471
"2,5-dimethylpyridine",Cc1ccc(C)nc1,-0.03
"3,4-dimethylpyridine",Cc1ccncc1C,-0.314
"3,5-dimethylpyridine",Cc1cncc(C)c1,-0.5115
2-vinylpyridine,C=Cc1ccccn1,-0.5824
4-vinylpyridine,C=Cc1ccncc1,-0.5579
"2,2-bipyridine",c1ccc(nc1)c2ccccn2,-1.4206
"4,4'-dipyridyl",c1cc(ccn1)c2ccncc2,-1.5376
"1,7-phenanthroline",c1cnc2c(c1)ccc3ncccc23,-2.6806
acridine,c1ccc2nc3ccccc3cc2c1,-3.6691
benzo(f)quinoline,c1ccc2c(c1)ccc3ncccc23,-3.3574
isoquinoline,c1ccc2cnccc2c1,-1.456
"2,2'-biquinoline",c1ccc2nc(ccc2c1)c3ccc4ccccc4n3,-5.4002
phthalazine,c1ccc2cnncc2c1,-0.4155
diazinon,CCO[P](=S)(OCC)Oc1cc(C)nc(n1)C(C)C,-3.8813
"phenol,2,2'-methylenebis 4-chloro-",Oc1ccc(Cl)cc1Cc2cc(Cl)ccc2O,-3.9528
4-hexylresorcinol,CCCCCCc1ccc(O)cc1O,-2.5895
Diethylstilbestrol,CC\C(c1ccc(O)cc1)=C(\CC)c2ccc(O)cc2,-4.3495
"3,3'-dichlorobenzidine",Nc1ccc(cc1Cl)c2ccc(N)c(Cl)c2,-4.912
"1,4-benzenediamine",Nc1ccc(N)cc1,-0.4658
"3,3'-dimethoxybenzidine",COc1cc(ccc1N)c2ccc(N)c(OC)c2,-3.6098
p-methylsulfonyltoluene,Cc1ccc(cc1)[S](C)(=O)=O,-1.9873
"n,n-diethylformamide",CCN(CC)C=O,0.995
"l-tryptophan, n-acetyl, ethyl ester",CCOC(=O)[C@H](Cc1c[nH]c2ccccc12)N(C)C=O,-2.2709
"ethenesulfonamide, n-phenyl-",C=C[S](=O)(=O)Nc1ccccc1,-1.4996
"benzenamine, n-hydroxy-4-methyl-",Cc1ccc(NO)cc1,-0.7894
phenylhydroxylamine,ONc1ccccc1,-0.4359
disulfoton sulfoxide,CCO[P](=S)(OCC)SCC[S](=O)CC,-1.8609
phorate sulfoxide,CCO[P](=O)(OCC)SC[S](=O)CC,-1.5124
"phosphorodithioic acid, s-[2-(et-so)et] o,o-dime",CC[S](=O)CCS[P](=S)(OC)OC,-0.9137
"1,1'-sulfinylbis(2-chloroethane)",ClCC[S](=O)CCCl,-1.1641
aphidan,CC[S](=O)CS[P](=S)(OC(C)C)OC(C)C,-2.3074
terbufos sulfone,CCO[P](=S)(OCC)SC[S](=O)(=O)C(C)(C)C,-2.8951
diethyl sulfone,CC[S](=O)(=O)CC,0.0433
"ethane, [(iodomethyl)sulfonyl]-",CC[S](=O)(=O)CI,-0.9714
ethyl benzenesulfonate,CCO[S](=O)(=O)c1ccccc1,-2.1308
methyl benzenesulfonate,CO[S](=O)(=O)c1ccccc1,-1.7419
pyrazolynate,Cn1nc(C)c(C(=O)c2ccc(Cl)cc2Cl)c1O[S](=O)(=O)c3ccc(C)cc3,-6.8946
"benzenamine, 4-[(4-chlorophenyl)sulfonyl]-",Nc1ccc(cc1)[S](=O)(=O)c2ccc(Cl)cc2,-4.1267
"benzoic acid, 5-amino-2-sulfanilyl-",Nc1ccc(N)c(c1)[S](=O)(=O)c2ccccc2C(O)=O,-1.8395
"acetamide, n-[4-[(4-aminophenyl)sulfonyl]phenyl]-",CC(=O)Nc1ccc(cc1)[S](=O)(=O)c2ccc(N)cc2,-3.6116
"carbamic acid, sulfamoyl-, 2-ethylbutyl ester",CCC(CC)COC(=O)N[S](N)(=O)=O,-1.7487
"carbamic acid, sulfamoyl-, butyl ester",CCCCOC(=O)N[S](N)(=O)=O,-1.0375
"carbamic acid, sulfamoyl-, 2-ethylhexyl ester",CCCCC(CC)COC(=O)N[S](N)(=O)=O,-2.402
bentazone,CC(C)N1C(=O)c2ccccc2N[S]1(=O)=O,-2.6817
"1,3-benzodioxole-5-acetic acid, .alpha.-oxo-",OC(=O)C(=O)c1ccc2OCOc2c1,-1.1912
"phenanthrene-9,10-dione",O=C1C(=O)c2ccccc2c3ccccc13,-4.4435
"1,3-benzenedicarboxylic acid, 2-(carboxycarbonyl)-",OC(=O)C(=O)c1c(cccc1C(O)=O)C(O)=O,-0.4541
"3-pyrazoline-5-thione, 1,3-dimethyl-2-phenyl-",CN1N(C(=CC1=S)C)c2ccccc2,-1.6668
"S-(1,2-Dichlorovinyl)-L-cysteine",N[C@@H](CSC(/Cl)=C/Cl)C(O)=O,-1.4895
"2-propanone, 1-(4,5-dihydro-2-thiazolyl)-",CC(=O)CC1=NCCS1,-1.156
"methanamine, 1-(trimethylsilyl)-",C[Si](C)(C)CN,-1.7619999999999998
"ethanamine, 2-(trimethylsilyl)-",C[Si](C)(C)CCN,-1.807
tetraethylsilane,CC[Si](CC)(CC)CC,-5.6475
"(2,4-dimethylphenyl)phosphonic acid",Cc1ccc(c(C)c1)[P](O)(O)=O,-1.0938
"phosphonic acid, 1-naphthalenyl-",O[P](O)(=O)c1cccc2ccccc12,-1.6194
paraquat dichloride,[Cl-].[Cl-].C[n+]1ccc(cc1)c2cc[n+](C)cc2,0.4349
diquat dibromide,[Br-].[Br-].C1C[n+]2ccccc2c3cccc[n+]13,0.3133
furathiocarb,CCCCOC(=O)N(C)SN(C)C(=O)Oc1cccc2CC(C)(C)Oc12,-4.5412
benfuracarb,CCOC(=O)CCN(SN(C)C(=O)Oc1cccc2CC(C)(C)Oc12)C(C)C,-4.7103
carbosulfan,CCCCN(CCCC)SN(C)C(=O)Oc1cccc2CC(C)(C)Oc12,-6.1033
phenylmercuric acetate,CC(=O)O[Hg]c1ccccc1,-1.8868
2-methoxyethyl mercuric chloride,[Cl-].COCC[Hg+],-0.7709999999999999
mercuric acetate,[Hg++].CC([O-])=O.CC([O-])=O,-0.1054
formaldehyde,C=O,1.1206
diacetylene,C#CC#C,-0.7241
2(3h)-thiophenone,O=C1CC=CS1,-0.2225
dimethylsulfate,CO[S](=O)(=O)OC,-0.6537
"1-phenylpropane-1,2-dione",CC(=O)C(=O)c1ccccc1,-1.7558
"2,3-butanedione",CC(=O)C(C)=O,0.3661
"pentane-2,3-dione",CCC(=O)C(C)=O,-0.1764
hexanebis(thioic) acid,SC(=O)CCCCC(S)=O,-1.7326
"propanoic acid,2-[(meo-carbonyl)oxy]-, me ester",COC(=O)OC(C)C(=O)OC,-0.6003
chlorphoxim,CCO[P](=S)(OCC)O/N=C(C#N)/c1ccccc1Cl,-5.2917
chlorthiamid,NC(=S)c1c(Cl)cccc1Cl,-2.3363
"thiocyanic acid, 2-oxopropyl ester",CC(=O)CSC#N,-0.2162
"thiocyanic acid, 1,2,3-propanetriyl ester",N#CSCC(CSC#N)SC#N,-1.9351
"benzenesulfonic acid, pentabromo-",O[S](=O)(=O)c1c(Br)c(Br)c(Br)c(Br)c1Br,-2.0061
2-dibenzofuransulfonic acid,[O-][S](=O)(=O)c1ccc2oc3ccccc3c2c1,-0.4655
carbon dioxide,O=C=O,-1.4748
pyributicarb,COc1cccc(n1)N(C)C(=S)Oc2cccc(c2)C(C)(C)C,-6.013999999999999
endosulfan sulfate,ClC1=C(Cl)C2(Cl)C3CO[S](=O)(=O)OCC3C1(Cl)C2(Cl)Cl,-5.945
propargite,CC(C)(C)c1ccc(OC2CCCCC2O[S](=O)OCC#C)cc1,-5.8457
a-endosulfan,ClC1=C(Cl)C2(Cl)[C@H]3CO[S](=O)OC[C@H]3[C@]1(Cl)C2(Cl)Cl,-5.9019
"1,3,2-dioxathiolane, 2-oxide",O=[S]1OCCO1,0.2214
sulfotepp,CCO[P](=S)(OCC)O[P](=S)(OCC)OCC,-4.0312
3-pyridinecarbothioic acid,OC(=S)c1cccnc1,-1.3801
"propanoic acid, 2-[(ethoxythioxomethyl)thio]-",CCOC(=S)SC(C)C(O)=O,-1.4489
"1,3,5-tribromobenzene",Brc1cc(Br)cc(Br)c1,-5.6004
"2,4,6-tribromophenol",Oc1c(Br)cc(Br)cc1Br,-3.6745
"2,4,6-trichloroaniline",Nc1c(Cl)cc(Cl)cc1Cl,-3.6912
tropic acid,OCC(C(O)=O)c1ccccc1,-0.9305
diphenic acid,OC(=O)c1ccccc1c2ccccc2C(O)=O,-2.2839
o-hydroxybenzyl alcohol,OCc1ccccc1O,-0.2946
chlorotrifluoromethane,FC(F)(F)Cl,-3.0647
1-bromooctane,CCCCCCCCBr,-5.0631
halothane,FC(F)(F)C(Cl)Br,-1.7043
alpha-glucose pentaacetate,CC(=O)OC[C@@H](OC(C)=O)[C@@H](OC(C)=O)[C@H](OC(C)=O)[C@@H](OC(C)=O)C=O,-2.4154
4-aminoacetophenone,CC(=O)c1ccc(N)cc1,-1.6058
hexamethylmelamine,CN(C)c1nc(nc(n1)N(C)C)N(C)C,-3.3638
3-hydroxy-5-methylisoxazole,CC1=CC(=O)NO1,-0.0666
1-napthylthiourea,NC(=S)Nc1cccc2ccccc12,-2.5278
n-phenylthiourea,NC(=S)Nc1ccccc1,-1.7898
"2,3,7,8-tetrachlorodibenzo-p-dioxin",Clc1cc2Oc3cc(Cl)c(Cl)cc3Oc2cc1Cl,-9.2068
"1,2,3,4,6,7,8,9-octachlorodibenzo-p-dioxin",Clc1c(Cl)c(Cl)c2Oc3c(Cl)c(Cl)c(Cl)c(Cl)c3Oc2c1Cl,-12.0605
"1,3,6,8-tetrachlorodibenzo-p-dioxin",Clc1cc(Cl)c2Oc3cc(Cl)cc(Cl)c3Oc2c1,-9.0027
"2,7-dichlorodibenzo-p-dioxin",Clc1ccc2Oc3cc(Cl)ccc3Oc2c1,-7.8292
"1,2,3,4,7,8-hexachlorodibenzo-p-dioxin",Clc1cc2Oc3c(Cl)c(Cl)c(Cl)c(Cl)c3Oc2cc1Cl,-10.9486
"1,2,3,4,7-pentachlorodibenzo-p-dioxin",Clc1ccc2Oc3c(Cl)c(Cl)c(Cl)c(Cl)c3Oc2c1,-9.4728
"2,3,7,8-tetrachlorodibenzofuran",Clc1cc2oc3cc(Cl)c(Cl)cc3c2cc1Cl,-8.6456
"1,2,3,7-tetrachlorodibenzodioxin",Clc1ccc2Oc3c(Cl)c(Cl)c(Cl)cc3Oc2c1,-8.8744
"2,2',3,3',6-pentachlorobiphenyl",Clc1cccc(c1Cl)c2c(Cl)ccc(Cl)c2Cl,-6.7798
salicylanilide,Oc1ccccc1C(=O)Nc2ccccc2,-3.5885
benzoyl peroxide,O=C(OOC(=O)c1ccccc1)c2ccccc2,-4.4252
n4-acetylsulfanilamide,CC(=O)Nc1ccc(cc1)[S](N)(=O)=O,-1.6066
primidone,CCC1(C(=O)NCNC1=O)c2ccccc2,-2.64
creatinine,CN1CC(=O)N=C1N,-0.1499
cycloheximide,C[C@H]1C[C@H](C)C(=O)[C@@H](C1)[C@H](O)CC2CC(=O)NC(=O)C2,-1.127
trichloronitromethane,[O-][N+](=O)C(Cl)(Cl)Cl,-2.0063
2-ethyl-2-phenylgluterimide,CCC1(CCC(=O)NC1=O)c2ccccc2,-2.3374
isosorbide dinitrate,[O-][N+](=O)O[C@H]1CO[C@@H]2[C@@H](CO[C@H]12)O[N+]([O-])=O,-2.6328
maleic hydrazide,O=C1NNC(=O)C=C1,-1.2714
"2,6-dimethyl-4-pyrimidinamine",Cc1cc(N)nc(C)n1,-1.2843
phenylbutazone,CCCCC1C(=O)N(N(C1=O)c2ccccc2)c3ccccc3,-3.8124
pencillamine,CC(C)(S)[C@@H](N)C(O)=O,-0.1285
haloperidol,OC1(CCN(CCCC(=O)c2ccc(F)cc2)CC1)c3ccc(Cl)cc3,-4.4289
chloramphenicol,OCC(NC(=O)C(Cl)Cl)C(O)c1ccc(cc1)[N+]([O-])=O,-2.1114
strychnine,O=C1C[C@@H]2OCC=C3CN4CC[C@@]56[C@@H]4C[C@@H]3[C@@H]2[C@@H]5N1c7ccccc67,-3.3202
aminopyrine,CN(C)C1=C(C)N(C)N(c2ccccc2)C1=O,-0.6286
perphenazine,OCCN1CCN(CCCN2c3ccccc3Sc4ccc(Cl)cc24)CC1,-4.1546
promazine,CN(C)CCCN1c2ccccc2Sc3ccccc13,-4.3017
antipyrine,CN1N(C(=O)C=C1C)c2ccccc2,-0.5642
promethazine,CC(CN1c2ccccc2Sc3ccccc13)N(C)C,-4.2597
niridazole,[O-][N+](=O)c1sc(nc1)N2CCNC2=O,-3.2169
fluphenazine,OCCN1CCN(CCCN2c3ccccc3Sc4ccc(cc24)C(F)(F)F)CC1,-4.1488
tubercidin,Nc1ncnc2n(ccc12)C3OC(CO)C(O)C3O,-1.9515
sulfathiozole,Nc1ccc(cc1)[S](=O)(=O)Nc2sccn2,-2.4248
thiamylal,CCCC(C)C1(CC=C)C(=O)NC(=S)NC1=O,-3.4585
theobromine,Cn1cnc2N(C)C(=O)NC(=O)c12,-2.7372
phthalimide,O=C1NC(=O)c2ccccc12,-2.6114
trifluorperazine,CN1CCN(CCCN2c3ccccc3Sc4ccc(cc24)C(F)(F)F)CC1,-4.5238
sulfadimethoxine,COc1cc(N[S](=O)(=O)c2ccc(N)cc2)nc(OC)n1,-2.9565
griseofulvin,COC1CC(=O)C[C@@H](C)[C@]12Oc3c(Cl)c(OC)cc(OC)c3C2=O,-4.611000000000001
oxyphenbutazone,CCCCC1C(=O)N(N(C1=O)c2ccc(O)cc2)c3ccccc3,-3.7329
sulfamethiazole,Cc1sc(N[S](=O)(=O)c2ccc(N)cc2)nn1,-2.4107
erythritol,OCC(O)C(O)CO,0.6985
ephedrine,CN[C@@H](C)[C@H](O)c1ccccc1,-0.4147
allopurinol,O=C1N=CN=C2NNC=C12,-2.3788
carbutamide,CCCCNC(=O)N[S](=O)(=O)c1ccc(N)cc1,-2.1782
brucine,COc1cc2N3C4[C@@H]5C(CC3=O)OCC=C6CN7CC[C@]4([C@@H]7C[C@H]56)c2cc1OC,-2.0909
sulfaphenazole,Nc1ccc(cc1)[S](=O)(=O)Nc2ccnn2c3ccccc3,-2.3213
eriodictyol,Oc1cc(O)c2C(=O)C[C@H](Oc2c1)c3ccc(O)c(O)c3,-3.6147
sulfaperine,Cc1cnc(N[S](=O)(=O)c2ccc(N)cc2)nc1,-2.82
sulfameter,COc1cnc(N[S](=O)(=O)c2ccc(N)cc2)nc1,-2.5843
tolcyclamide,Cc1ccc(cc1)[S](=O)(=O)NC(=O)NC2CCCCC2,-4.207
sulfamethoxazole,Cc1onc(N[S](=O)(=O)c2ccc(N)cc2)c1,-2.6183
trimethoprim,COc1cc(Cc2cnc(N)nc2N)cc(OC)c1OC,-2.8608
deoxycorticosterone acetate,CC(=O)OCC(=O)[C@H]1CC[C@H]2[C@@H]3CCC4=CC(=O)CC[C@]4(C)[C@H]3CC[C@]12C,-4.6301
triamcinolone,C[C@]12C[C@H](O)[C@@]3(F)[C@@H](CCC4=CC(=O)C=C[C@]34C)[C@@H]1C[C@@H](O)[C@]2(O)C(=O)CO,-3.6929
betamethasone-17-valerate,CCCCC(=O)O[C@@]1([C@@H](C)C[C@H]2[C@@H]3CCC4=CC(=O)C=C[C@]4(C)[C@@]3(F)[C@@H](O)C[C@]12C)C(=O)CO,-4.7101
o-aminophenol,Nc1ccccc1O,-0.7369
"2-amino-4,6-dinitrophenol",Nc1cc(cc(c1O)[N+]([O-])=O)[N+]([O-])=O,-2.4862
3-nitroaniline,Nc1cccc(c1)[N+]([O-])=O,-2.0611
4-nitroaniline,Nc1ccc(cc1)[N+]([O-])=O,-2.2782
"2,4-dinitrophenol",Oc1ccc(cc1[N+]([O-])=O)[N+]([O-])=O,-2.5976
4-methyl-2-nitrophenol,Cc1ccc(O)c(c1)[N+]([O-])=O,-2.3837
4-hydroxybenzaldehyde,Oc1ccc(C=O)cc1,-0.9762
"2,5-dinitrophenol",Oc1cc(ccc1[N+]([O-])=O)[N+]([O-])=O,-2.6796
5-fluoro-2-nitrophenol,Oc1cc(F)ccc1[N+]([O-])=O,-2.05
"4,6-dinitro-o-cresol",Cc1cc(cc(c1O)[N+]([O-])=O)[N+]([O-])=O,-3.0003
"2,6-dinitrophenol",Oc1c(cccc1[N+]([O-])=O)[N+]([O-])=O,-2.7668
2-nitroresorcinol,Oc1cccc(O)c1[N+]([O-])=O,-2.0734
4-phenyl-2-nitrophenol,Oc1ccc(cc1[N+]([O-])=O)c2ccccc2,-4.4101
4-(sec-butyl)-2-nitrophenol,CCC(C)c1ccc(O)c(c1)[N+]([O-])=O,-3.8403
p-aminosalicylic acid,Nc1ccc(C(O)=O)c(O)c1,-1.9572
3-aminobenzoic acid,Nc1cccc(c1)C(O)=O,-1.3663
"3,4-dihydroxybenzoic acid",OC(=O)c1ccc(O)c(O)c1,-0.9278
4-hydroxy-3-methoxybenzoic acid,COc1cc(ccc1O)C(O)=O,-2.0496
"3-amino-2,5-dichlorobenzoic acid",Nc1cc(Cl)cc(C(O)=O)c1Cl,-2.4688
4-aminobenzoic acid,Nc1ccc(cc1)C(O)=O,-1.3511
"2,6-dihydroxybenzoic acid",OC(=O)c1c(O)cccc1O,-1.2074
p-hydroxy butyl benzoate,CCCCOC(=O)c1ccc(O)cc1,-2.9723
methyl salicylate,COC(=O)c1ccccc1O,-1.3130000000000002
phenyl-4-aminosalicylate,Nc1ccc(c(O)c1)C(=O)Oc2ccccc2,-4.5152
methyl p-aminobenzoate,COC(=O)c1ccc(N)cc1,-1.5974
"benzoic acid, 4-amino-,pentyl ester",CCCCCOC(=O)c1ccc(N)cc1,-3.3499
"benzoic acid,4-amino-,heptyl ester",CCCCCCCOC(=O)c1ccc(N)cc1,-4.6001
"benzoic acid,4-amino,octyl ester",CCCCCCCCOC(=O)c1ccc(N)cc1,-5.3999
"1,1-diethoxyethane",CCOC(C)OCC,-0.4291
dimethoxymethane,COCOC,0.506
paraldehyde,CC1OC(C)OC(C)O1,-0.0719
diethoxymethane,CCOCOCC,-0.1726
dexamethasone,C[C@@H]1C[C@H]2[C@@H]3CCC4=CC(=O)C=C[C@]4(C)[C@@]3(F)[C@@H](O)C[C@]2(C)[C@@]1(O)C(=O)CO,-3.6444
hydrocortisone acetate,CC(=O)OCC(=O)[C@@]1(O)CC[C@H]2[C@@H]3CCC4=CC(=O)CC[C@]4(C)[C@H]3[C@@H](O)C[C@]12C,-4.4577
cortisone acetate,CC(=O)OCC(=O)[C@@]1(O)CC[C@H]2[C@@H]3CCC4=CC(=O)CC[C@]4(C)[C@H]3C(=O)C[C@]12C,-4.3037
corticosterone,C[C@]12C[C@H](O)[C@H]3[C@@H](CCC4=CC(=O)CC[C@]34C)[C@@H]1CC[C@@H]2C(=O)CO,-3.2408
prednisolone acetate,CC(=O)OCC(=O)[C@@]1(O)CC[C@H]2[C@@H]3CCC4=CC(=O)C=C[C@]4(C)[C@H]3[C@@H](O)C[C@]12C,-4.3692
cortisone,C[C@]12CCC(=O)C=C1CC[C@H]3[C@@H]4CC[C@](O)(C(=O)CO)[C@@]4(C)CC(=O)[C@H]23,-3.1097
progesterone,CC(=O)[C@H]1CC[C@H]2[C@@H]3CCC4=CC(=O)CC[C@]4(C)[C@H]3CC[C@]12C,-4.5526
17-methyltestosterone,C[C@]1(O)CC[C@H]2[C@@H]3CCC4=CC(=O)CC[C@]4(C)[C@H]3CC[C@]12C,-3.9505
testosterone,C[C@]12CC[C@H]3[C@@H](CCC4=CC(=O)CC[C@]34C)[C@@H]1CC[C@@H]2O,-4.0908
androstenedione,C[C@]12CC[C@H]3[C@@H](CCC4=CC(=O)CC[C@]34C)[C@@H]1CCC2=O,-3.6949
deoxycorticosterone,C[C@]12CC[C@H]3[C@@H](CCC4=CC(=O)CC[C@]34C)[C@@H]1CC[C@@H]2C(=O)CO,-3.7446
triamcinolone diacetate,CC(=O)OCC(=O)[C@@]1(O)[C@@H](C[C@H]2[C@@H]3CCC4=CC(=O)C=C[C@]4(C)[C@@]3(F)[C@@H](O)C[C@]12C)OC(C)=O,-4.1297
17-alpha-hydroxyprogesterone,CC(=O)[C@@]1(O)CC[C@H]2[C@@H]3CCC4=CC(=O)CC[C@]4(C)[C@H]3CC[C@]12C,-4.7076
fludrocortisone,C[C@]12C[C@H](O)[C@@]3(F)[C@@H](CCC4=CC(=O)CC[C@]34C)[C@@H]1CC[C@]2(O)C(=O)CO,-3.4342