Name,SMILES,Solubility
7-(3-amino-3-methylazetidin-1-yl)-8-chloro-1-cyclopropyl-6-fluoro-4-oxoquinoline-3-carboxylic acid,CC1(N)CN(C2=C(Cl)C3=C(C=C2F)C(=O)C(C(=O)O)=CN3C2CC2)C1,-5.33
"5-amino-7-(3-amino-3-methylazetidin-1-yl)-1-cyclopropyl-6,8-difluoro-4-oxoquinoline-3-carboxylic acid",CC1(N)CN(C2=C(F)C3=C(C(=O)C(C(=O)O)=CN3C3CC3)C(N)=C2F)C1,-4.38
N-(phenylmethyl)-7H-purin-6-amine,C1=CC=C(CNC2=NC=NC3=C2N=CN3)C=C1,-3.6
"7-(3-aminoazetidin-1-yl)-1-cyclopropyl-6,8-difluoro-4-oxoquinoline-3-carboxylic acid",NC1CN(C2=C(F)C3=C(C=C2F)C(=O)C(C(=O)O)=CN3C2CC2)C1,-5.27
N-(furan-2-ylmethyl)-7H-purin-6-amine,C1=COC(CNC2=NC=NC3=C2N=CN3)=C1,-3.95
"7-(3-amino-3-methylazetidin-1-yl)-1-cyclopropyl-6,8-difluoro-4-oxoquinoline-3-carboxylic acid",CC1(N)CN(C2=C(F)C3=C(C=C2F)C(=O)C(C(=O)O)=CN3C2CC2)C1,-5.64
"1-cyclopropyl-6,8-difluoro-7-(3-methylaminoazetidin-1-yl)-4-oxoquinoline-3-carboxylic acid",CNC1CN(C2=C(F)C3=C(C=C2F)C(=O)C(C(=O)O)=CN3C2CC2)C1,-5.31
"5-ethyl-8-oxo-[1,3]dioxolo[4,5-g]quinoline-7-carboxylic acid",CCN1C=C(C(=O)O)C(=O)C2=C1C=C1OCOC1=C2,-4.38
propan-2-yl 2-(6-methoxynaphthalen-2-yl)propanoate,COC1=CC=C2C=C(C(C)C(=O)OC(C)C)C=CC2=C1,-5.48
"ethyl 5-(benzoyl)-2,3-dihydro-1H-pyrrolizine-1-carboxylate",CCOC(=O)C1CCN2C(C(=O)C3=CC=CC=C3)=CC=C12,-4.2
"6-methoxy-3,3,12-trimethylchromeno[5,6-b][1,8]naphthyridin-7-one",COC1=CC2=C(C=CC(C)(C)O2)C2=C1C(=O)C1=C(N=CC=C1)N2C,-3.96
"5,6-dihydroxy-5,6-dihydrobenzo[b][1]benzazepine-11-carboxamide",NC(=O)N1C2=C(C=CC=C2)C(O)C(O)C2=C1C=CC=C2,-2.03
6-O-(Octylcarbamoyl)hexopyranose,CCCCCCCCNC(=O)OCC1OC(O)C(O)C(O)C1O,-2.35
"(3,4,5,6-tetrahydroxyoxan-2-yl)methyl-n-nonylcarbamate",CCCCCCCCCNC(=O)OCC1OC(O)C(O)C(O)C1O,-2.96
6-O-(Decylcarbamoyl)hexopyranose,CCCCCCCCCCNC(=O)OCC1OC(O)C(O)C(O)C1O,-3.56
8-methyl-2-morpholin-4-yl-7-phenylmethoxychromen-4-one,CC1=C(OCC2=CC=CC=C2)C=CC2=C1OC(N1CCOCC1)=CC2=O,-5.16
8-methyl-2-morpholin-4-yl-7-(pyridin-2-ylmethoxy)chromen-4-one,CC1=C(OCC2=CC=CC=N2)C=CC2=C1OC(N1CCOCC1)=CC2=O,-4.45
"3,3-diethyl-1-(hydroxymethyl)piperidine-2,6-dione",CCC1(CC)CCC(=O)N(CO)C1=O,-3.96
"5,5-diethyl-1-(hydroxymethyl)-1,3-diazinane-2,4,6-trione",CCC1(CC)C(=O)NC(=O)N(CO)C1=O,-3.93
"2-[2-(2-aminopurin-9-yl)ethyl]propane-1,3-diol",NC1=NC2=C(C=N1)N=CN2CCC(CO)CO,-0.3
"8-(4-hydroxybutyl)-4H-thieno[3,2-c][1]benzoxepin-10-one",O=C1C2=C(C=CC(CCCCO)=C2)OCC2=C1SC=C2,-3.92
N-naphthalen-2-yl-2-sulfanylacetamide,O=C(CS)NC1=CC=C2C=CC=CC2=C1,-3.34
"5,5-di(ethenyl)-1,3-diazinane-2,4,6-trione",C=CC1(C=C)C(=O)NC(=O)NC1=O,-2.06
"5-ethenyl-5-propan-2-yl-1,3-diazinane-2,4,6-trione",C=CC1(C(C)C)C(=O)NC(=O)NC1=O,-1.71
"5-ethenyl-5-(2-methylpropyl)-1,3-diazinane-2,4,6-trione",C=CC1(CC(C)C)C(=O)NC(=O)NC1=O,-2.12
"[2,5-dioxo-4,4-di(phenyl)imidazolidin-1-yl]methyl butanoate",CCCC(=O)OCN1C(=O)NC(C2=CC=CC=C2)(C2=CC=CC=C2)C1=O,-4.68
4-amino-1-[5-(hydroxymethyl)oxolan-2-yl]pyrimidin-2-one,NC1=NC(=O)N(C2CCC(CO)O2)C=C1,-0.43
"(5-acetyloxy-11-carbamoyl-5,6-dihydrobenzo[b][1]benzazepin-6-yl) acetate",CC(=O)OC1C2=C(C=CC=C2)N(C(N)=O)C2=C(C=CC=C2)C1OC(C)=O,-3.55
Methyl N-(dichloroacetyl)threoninate,COC(=O)C(NC(=O)C(Cl)Cl)C(C)O,-0.62
"2-[(2,2-dichloroacetyl)amino]-3-hydroxypropanoic acid",O=C(NC(CO)C(=O)O)C(Cl)Cl,-0.03
ethyl 2-(6-methoxynaphthalen-2-yl)propanoate,CCOC(=O)C(C)C1=CC2=CC=C(OC)C=C2C=C1,-5.24
propyl 2-(6-methoxynaphthalen-2-yl)propanoate,CCCOC(=O)C(C)C1=CC2=CC=C(OC)C=C2C=C1,-5.82
butyl 2-(6-methoxynaphthalen-2-yl)propanoate,CCCCOC(=O)C(C)C1=CC=C2C=C(OC)C=CC2=C1,-7.53
2-hydroxyethyl 2-(6-methoxynaphthalen-2-yl)propanoate,COC1=CC=C2C=C(C(C)C(=O)OCCO)C=CC2=C1,-3.33
tert-butyl 2-(6-methoxynaphthalen-2-yl)propanoate,COC1=CC2=C(C=C1)C=C(C(C)C(=O)OC(C)(C)C)C=C2,-6.5
pentyl 2-(6-methoxynaphthalen-2-yl)propanoate,CCCCCOC(=O)C(C)C1=CC2=CC=C(OC)C=C2C=C1,-6.97
2-hydroxypropyl 2-(6-methoxynaphthalen-2-yl)propanoate,COC1=CC=C2C=C(C(C)C(=O)OCC(C)O)C=CC2=C1,-3.31
3-hydroxypropyl 2-(6-methoxynaphthalen-2-yl)propanoate,COC1=CC2=CC=C(C(C)C(=O)OCCCO)C=C2C=C1,-3.4
hexyl 2-(6-methoxynaphthalen-2-yl)propanoate,CCCCCCOC(=O)C(C)C1=CC=C2C=C(OC)C=CC2=C1,-7.54
heptyl 2-(6-methoxynaphthalen-2-yl)propanoate,CCCCCCCOC(=O)C(C)C1=CC=C2C=C(OC)C=CC2=C1,-7.12
2-oxopropyl 2-(6-methoxynaphthalen-2-yl)propanoate,COC1=CC=C2C=C(C(C)C(=O)OCC(C)=O)C=CC2=C1,-4.65
hex-3-ynyl 2-(6-methoxynaphthalen-2-yl)propanoate,CCC#CCCOC(=O)C(C)C1=CC=C2C=C(OC)C=CC2=C1,-7.33
"2,3-dihydroxypropyl 2-(6-methoxynaphthalen-2-yl)propanoate",COC1=CC=C2C=C(C(C)C(=O)OCC(O)CO)C=CC2=C1,-2.62
(2-hydroxycyclohexyl) 2-(6-methoxynaphthalen-2-yl)propanoate,COC1=CC=C2C=C(C(C)C(=O)OC3CCCCC3O)C=CC2=C1,-5.07
"[5-(1,2-dihydroxyethyl)-2,2-dimethyl-3~{a},5,6,6~{a}-tetrahydrofuro[2,3-d][1,3]dioxol-6-yl] octanoate",CCCCCCCC(=O)OC1C(C(O)CO)OC2OC(C)(C)OC21,-3.17
(2-oxocyclohexyl) 2-(6-methoxynaphthalen-2-yl)propanoate,COC1=CC=C2C=C(C(C)C(=O)OC3CCCCC3=O)C=CC2=C1,-5.59
2-(6-Methoxy-2-naphthyl)propionic acid (e)-3-hexenyl ester,CCC=CCCOC(=O)C(C)C1=CC=C2C=C(OC)C=CC2=C1,-7.36
"(6-hydroxy-2,3,3a,5,6,6a-hexahydrofuro[2,3-d]furan-3-yl) 2-(6-methoxynaphthalen-2-yl)propanoate",COC1=CC2=C(C=C1)C=C(C(C)C(=O)OC1COC3C(O)COC13)C=C2,-3.98
"1,3-bis(4-ethoxyphenyl)urea",CCOC1=CC=C(NC(=O)NC2=CC=C(OCC)C=C2)C=C1,-4.44
N-[4-chloro-2-(trifluoromethyl)phenyl]-1-imidazol-1-yl-2-propoxyethanimine,CCCOCC(=NC1=C(C(F)(F)F)C=C(Cl)C=C1)N1C=CN=C1,-4.44
"6-amino-3-methylfuro[3,2-g]chromen-7-one",CC1=COC2=CC3=C(C=C(N)C(=O)O3)C=C12,-5.08
"6-methoxy-3-methylfuro[3,2-g]chromen-7-one",COC1=CC2=C(C=C3OC=C(C)C3=C2)OC1=O,-5.0
"Methyl 3,9-dimethyl-7-oxo-7H-furo[3,2-g]chromene-6-carboxylate",COC(=O)C1=CC2=C(OC1=O)C(C)=C1OC=C(C)C1=C2,-4.9
"[2-(dimethylamino)-2-oxoethyl] 5-benzoyl-2,3-dihydro-1~{H}-pyrrolizine-1-carboxylate",CN(C)C(=O)COC(=O)C1CCN2C(C(=O)C3=CC=CC=C3)=CC=C12,-3.03
"methyl 5-[2-(2,5-dimethoxyphenyl)ethyl]-2-hydroxybenzoate",COC(=O)C1=C(O)C=CC(CCC2=C(OC)C=CC(OC)=C2)=C1,-6.39
9-allyl-2-anilino-purin-6-ol,C=CCN1C=NC2=C1N=C(NC1=CC=CC=C1)NC2=O,-5.09
7-(3-amino-2-ethylazetidin-1-yl)-1-cyclopropyl-6-fluoro-4-oxoquinoline-3-carboxylic acid,CCC1C(N)CN1C1=CC2=C(C=C1F)C(=O)C(C(=O)O)=CN2C1CC1,-3.91
1-cyclopropyl-6-fluoro-7-(2-methyl-3-methylaminoazetidin-1-yl)-4-oxoquinoline-3-carboxylic acid,CNC1CN(C2=CC3=C(C=C2F)C(=O)C(C(=O)O)=CN3C2CC2)C1C,-4.57
"7-(3-amino-2,3-dimethylazetidin-1-yl)-1-cyclopropyl-6-fluoro-4-oxoquinoline-3-carboxylic acid",CC1N(C2=CC3=C(C=C2F)C(=O)C(C(=O)O)=CN3C2CC2)CC1(C)N,-5.42
7-(3-amino-2-methylazetidin-1-yl)-8-chloro-1-cyclopropyl-6-fluoro-4-oxoquinoline-3-carboxylic acid,CC1C(N)CN1C1=C(Cl)C2=C(C=C1F)C(=O)C(C(=O)O)=CN2C1CC1,-4.48
"5-amino-7-(3-amino-2-methylazetidin-1-yl)-1-cyclopropyl-6,8-difluoro-4-oxoquinoline-3-carboxylic acid",CC1C(N)CN1C1=C(F)C2=C(C(=O)C(C(=O)O)=CN2C2CC2)C(N)=C1F,-3.98
"1-cyclopropyl-6,8-difluoro-7-(2-methyl-3-methylaminoazetidin-1-yl)-4-oxoquinoline-3-carboxylic acid",CNC1CN(C2=C(F)C3=C(C=C2F)C(=O)C(C(=O)O)=CN3C2CC2)C1C,-4.44
"7-(3-amino-2-ethylazetidin-1-yl)-1-cyclopropyl-6,8-difluoro-4-oxoquinoline-3-carboxylic acid",CCC1C(N)CN1C1=C(F)C2=C(C=C1F)C(=O)C(C(=O)O)=CN2C1CC1,-3.81
"7-(3-amino-2,3-dimethylazetidin-1-yl)-1-cyclopropyl-6,8-difluoro-4-oxoquinoline-3-carboxylic acid",CC1N(C2=C(F)C3=C(C=C2F)C(=O)C(C(=O)O)=CN3C2CC2)CC1(C)N,-5.04
7-(3-amino-2-methylazetidin-1-yl)-1-cyclopropyl-6-fluoro-4-oxoquinoline-3-carboxylic acid,CC1C(N)CN1C1=CC2=C(C=C1F)C(=O)C(C(=O)O)=CN2C1CC1,-4.63
"7-(3-amino-2-methylazetidin-1-yl)-1-cyclopropyl-6,8-difluoro-4-oxoquinoline-3-carboxylic acid",CC1C(N)CN1C1=C(F)C2=C(C=C1F)C(=O)C(C(=O)O)=CN2C1CC1,-4.17
3-Oxoandrost-4-en-17-yl 3-hydroxy-2-(hydroxymethyl)propanoate,CC12CCC(=O)C=C1CCC1C2CCC2(C)C(OC(=O)C(CO)CO)CCC12,-4.25
"2-[2-(furan-2-yl)benzimidazol-1-yl]-5-(hydroxymethyl)oxolane-3,4-diol",OCC1OC(N2C(C3=CC=CO3)=NC3=C2C=CC=C3)C(O)C1O,-2.92
"2-[2-(furan-2-yl)benzimidazol-1-yl]-6-(hydroxymethyl)oxane-3,4,5-triol",OCC1OC(N2C(C3=CC=CO3)=NC3=C2C=CC=C3)C(O)C(O)C1O,-2.33
"6-(hydroxymethyl)-4-octylsulfanyloxane-2,3,5-triol",CCCCCCCCSC1C(O)C(O)OC(CO)C1O,-2.91
3-(2-dimethylamino-2-iminoethyl)sulfanyl-6-(1-hydroxyethyl)-4-methyl-7-oxo-1-azabicyclo[3.2.0]hept-2-ene-2-carboxylic acid,CC(O)C1C(=O)N2C(C(=O)O)=C(SCC(=N)N(C)C)C(C)C12,-0.28
2-methyl-4-(2-methylphenyl)diazenylaniline,CC1=C(N)C=CC(N=NC2=C(C)C=CC=C2)=C1,-4.05
"N,N-dimethyl-4-phenyldiazenylaniline",CN(C)C1=CC=C(N=NC2=CC=CC=C2)C=C1,-5.25
"3-methyl-3,4-dihydro-1H-1,4-benzodiazepine-2,5-dione",CC1NC(=O)C2=C(C=CC=C2)NC1=O,-2.38
"7-chloro-3,4-dihydro-1H-1,4-benzodiazepine-2,5-dione",O=C1CNC(=O)C2=C(C=CC(Cl)=C2)N1,-3.05
"N-(3-bromophenyl)-1H-pyrimido[5,6-f]indazol-5-amine",BrC1=CC=CC(NC2=NC=NC3=CC4=C(C=NN4)C=C32)=C1,-3.96
"5-ethenyl-5-pentan-2-yl-1,3-diazinane-2,4,6-trione",C=CC1(C(C)CCC)C(=O)NC(=O)NC1=O,-2.36
"N-(3-bromophenyl)-8H-pyrrolo[3,2-g]quinazolin-4-amine",BrC1=CC=CC(NC2=NC=NC3=CC4=C(C=CN4)C=C32)=C1,-2.82
hydroxy-[1-[hydroxy(oxo)azaniumyl]oxyhexan-2-yloxy]-oxoazanium,CCCCC(CO[N+](=O)O)O[N+](=O)O,-3.1
"7-chloro-1-methyl-5-phenyl-3H-1,4-benzodiazepin-2-one",CN1C(=O)CN=C(C2=CC=CC=C2)C2=C1C=CC(Cl)=C2,-3.71
4-(4-dimethylaminophenyl)diazenylbenzenesulfonic acid,CN(C)C1=CC=C(N=NC2=CC=C(S(=O)(=O)O)C=C2)C=C1,-3.86
"5-(2-chlorophenyl)-7-nitro-1,3-dihydro-1,4-benzodiazepin-2-one",C1C(=O)NC2=C(C=C(C=C2)[N+](=O)[O-])C(=N1)C3=CC=CC=C3Cl,-4.41
4-(2-propylpentanoylamino)butanoic acid,CCCC(CCC)C(=O)NCCCC(=O)O,-1.5
"N-(3-bromophenyl)-8-methylpyrrolo[3,2-g]quinazolin-4-amine",CN1C=CC2=C1C=C1N=CN=C(NC3=CC(Br)=CC=C3)C1=C2,-3.31
"N-(3-bromophenyl)-1-methylpyrazolo[4,5-g]quinazolin-5-amine",CN1N=CC2=C1C=C1N=CN=C(NC3=CC(Br)=CC=C3)C1=C2,-3.48
"2-[4-[(3-bromophenyl)amino]pyrrolo[3,2-g]quinazolin-8-yl]acetic acid",O=C(O)CN1C=CC2=C1C=C1N=CN=C(NC3=CC(Br)=CC=C3)C1=C2,-1.96
1-ethyl-1-(4-methoxyphenyl)urea,CCN(C(N)=O)C1=CC=C(OC)C=C1,-1.27
"5-fluoro-1-(phenylmethyl)pyrimidine-2,4-dione",O=C1NC(=O)N(CC2=CC=CC=C2)C=C1F,-2.65
"1-[2-(2,4-dichlorophenyl)-2-[(2,5-dichlorophenyl)methoxy]ethyl]imidazole",ClC1=CC(Cl)=C(C(CN2C=CN=C2)OCC2=C(Cl)C=CC(Cl)=C2)C=C1,-3.54
"4,4a,8,8a-tetrahydro-[1,3]dioxino[4,5-e][1,3]dioxin-8-ylmethanol",OCC1OCOC2COCOC12,-0.62
"Pentane-1,2-diyldinitrate",CCCC(CO[N+](=O)O)O[N+](=O)O,-2.5
"Dinitric acid 1,4-pentanediyl",CC(CCCO[N+](=O)O)O[N+](=O)O,-2.44
hydroxy-[6-[hydroxy(oxo)azaniumyl]oxyhexan-2-yloxy]-oxoazanium,CC(CCCCO[N+](=O)O)O[N+](=O)O,-2.84
(3-nitrooxycyclohexyl) nitrate,C1CC(CC(C1)O[N+](=O)[O-])O[N+](=O)[O-],-2.33
[1-[(6-chloropyridin-3-yl)methyl]-3-methylimidazolidin-2-ylidene]cyanamide,CN1CCN(CC2=CN=C(Cl)C=C2)C1=NC#N,-2.13
"1,2-Cyclohexanediol dinitrate",C1CCC(C(C1)O[N+](=O)O)O[N+](=O)O,-2.35
"[1-[(6-chloropyridin-3-yl)methyl]-4,5-dihydroimidazol-2-yl]cyanamide",N#CN=C1NCCN1CC1=CN=C(Cl)C=C1,-2.63
(2-nitrooxycycloheptyl) nitrate,C1CCC(C(CC1)O[N+](=O)[O-])O[N+](=O)[O-],-3.02
"N,N-diethyl-2-(9H-[1,2,4]triazino[6,5-b]indol-3-ylsulfanyl)ethanamine",CCN(CC)CCSC1=NC2=C(N=N1)NC1=C2C=CC=C1,-3.09
"5-[2-(2-aminopurin-9-yl)ethyl]-1,3-dioxan-2-one",NC1=NC2=C(C=N1)N=CN2CCC1COC(=O)OC1,-1.43
4-(4-methylsulfonylphenyl)-3-phenyl-5H-furan-2-one,CS(=O)(=O)C1=CC=C(C2=C(C3=CC=CC=C3)C(=O)OC2)C=C1,-4.52
2-amino-3-(3-methylimidazol-4-yl)propanoic acid,CN1C=NC=C1CC(N)C(=O)O,0.08
"5-(hydroxymethyl)-2-(trichloromethyl)-3~{a},5,6,6~{a}-tetrahydrofuro[2,3-d][1,3]dioxol-6-ol",OCC1OC2OC(C(Cl)(Cl)Cl)OC2C1O,-2.12
"dithiane-3,6-dicarboxylic acid",O=C(O)C1CCC(C(=O)O)SS1,-1.93
N-(6-methoxypyridin-3-yl)cyclopropanecarboxamide,COC1=NC=C(NC(=O)C2CC2)C=C1,-2.14
4-chloro-2-(furan-2-ylmethylamino)-5-sulfamoylbenzoic acid,NS(=O)(=O)C1=C(Cl)C=C(NCC2=CC=CO2)C(C(=O)O)=C1,-3.83
1-[2-[(1-ethoxy-1-oxo-4-phenylbutan-2-yl)amino]propyl]pyrrolidine-2-carboxylic acid,CCOC(=O)C(CCC1=CC=CC=C1)NC(C)CN1CCCC1C(=O)O,-1.24
1-[2-[(1-ethoxy-1-oxo-4-phenylbutan-2-yl)amino]propanoyl]pyrrolidine-2-carboxylic acid,CCOC(=O)C(CCC1=CC=CC=C1)NC(C)C(=O)N1CCCC1C(=O)O,-1.18
"2-(hydroxymethyl)-6-(2-naphthalen-1-ylethoxy)oxane-3,4,5-triol",OCC1OC(OCCC2=C3C=CC=CC3=CC=C2)C(O)C(O)C1O,-1.11
"5-ethyl-5-phenylimidazolidine-2,4-dione",CCC1(C2=CC=CC=C2)NC(=O)NC1=O,-2.64
"2-(phenoxy)oxane-3,4,5-triol",OC1COC(OC2=CC=CC=C2)C(O)C1O,-1.66
"2-[(2,2-dimethyl-1,3-dioxolan-4-yl)methoxycarbonyl]benzoic acid",CC1(C)OCC(COC(=O)C2=C(C(=O)O)C=CC=C2)O1,-1.23
"4-(2-oxo-1,3,3~{a},4,5,6,7,7~{a}-octahydrobenzimidazol-4-yl)butanoic acid",O=C(O)CCCC1CCCC2NC(=O)NC12,-0.96
2-amino-3-(1H-indol-3-yl)propanoic acid,NC(CC1=CNC2=C1C=CC=C2)C(=O)O,-1.77
[(z)-(5-Nitrofuran-2-yl)methylideneamino]urea,C1=C(OC(=C1)[N+](=O)[O-])C=NNC(=O)N,-2.92
"5-ethyl-5-pentan-2-yl-1,3-diazinane-2,4,6-trione",CCCC(C)C1(CC)C(=O)NC(=O)NC1=O,-2.39
"3-methyl-1-(2,3,4,5-tetrahydroxypentyl)-3,4-dihydro-1,4-benzodiazepine-2,5-dione",CC1NC(=O)C2=C(C=CC=C2)N(CC(O)C(O)C(O)CO)C1=O,-1.51
"1-(2,3,4,5-tetrahydroxypentyl)-3,4-dihydro-1,4-benzodiazepine-2,5-dione",O=C1NCC(=O)N(CC(O)C(O)C(O)CO)C2=C1C=CC=C2,-1.46
"2-methyl-5-(1,2,3,4-tetrahydroxybutyl)furan-3-carboxylic acid",CC1=C(C(=O)O)C=C(C(O)C(O)C(O)CO)O1,-1.28
"2-(hydroxymethyl)-6-(phenoxy)oxane-3,4,5-triol",OCC1OC(OC2=CC=CC=C2)C(O)C(O)C1O,-1.46
2-piperazin-1-ylethyl 2-(6-methoxynaphthalen-2-yl)propanoate,COC1=CC2=CC=C(C(C)C(=O)OCCN3CCNCC3)C=C2C=C1,-1.52
2-(4-methylpiperazin-1-yl)ethyl 2-(6-methoxynaphthalen-2-yl)propanoate,COC1=CC2=CC=C(C(C)C(=O)OCCN3CCN(C)CC3)C=C2C=C1,-1.49
Naproxen morpholinobutyl ester,COC1=CC2=CC=C(C(C)C(=O)OCCCCN3CCOCC3)C=C2C=C1,-3.7
4-(4-methylpiperazin-1-yl)butyl 2-(6-methoxynaphthalen-2-yl)propanoate,COC1=CC=C2C=C(C(C)C(=O)OCCCCN3CCN(C)CC3)C=CC2=C1,-1.29
"6a,7,8,9-tetrahydro-5H-pyrrolo[2,1-c][1,4]benzodiazepine-6,11-dione",O=C1NC2=C(C=CC=C2)C(=O)N2CCCC12,-3.75
"2-chloro-6a,7,8,9-tetrahydro-5H-pyrrolo[2,1-c][1,4]benzodiazepine-6,11-dione",O=C1NC2=C(C=C(Cl)C=C2)C(=O)N2CCCC12,-4.7
"8-hydroxy-6a,7,8,9-tetrahydro-5H-pyrrolo[2,1-c][1,4]benzodiazepine-6,11-dione",O=C1NC2=C(C=CC=C2)C(=O)N2CC(O)CC12,-2.37
"9-hydroxy-1,5,8-trimethyl-1,3a,4,5,5a,6,9,9a-octahydroazuleno[5,6-d]furan-2,7-dione",CC1=C2C(O)C3C(CC(C)C2CC1=O)OC(=O)C3C,-1.95
2-acetamido-3-(1H-indol-3-yl)propanoic acid,CC(=O)NC(CC1=CNC2=C1C=CC=C2)C(=O)O,-2.31
"Eburnamenine-14-carboxylic acid, ethyl ester, (3alpha,16alpha)-",CCOC(=O)C1=CC2(CC)CCCN3CCC4=C(C32)N1C1=C4C=CC=C1,-4.84
"4-[[4-(5-phenyl-1,3-oxazol-2-yl)phenyl]methyl]morpholine",C1=CC=C(C2=CN=C(C3=CC=C(CN4CCOCC4)C=C3)O2)C=C1,-4.35
"(3,6-dihydroxy-1-methyl-2,3-dihydroindol-5-yl)iminourea",CN1CC(O)C2=CC(=NNC(N)=O)C(=O)C=C21,-2.72
4-dimethylaminodiazenylbenzoic acid,CN(C)N=NC1=CC=C(C(=O)O)C=C1,-0.8
2-[[2-amino-3-(1H-indol-3-yl)propanoyl]amino]acetic acid,NC(CC1=CNC2=C1C=CC=C2)C(=O)NCC(=O)O,-0.85
4-amino-1-[4-fluoro-5-(hydroxymethyl)oxolan-2-yl]pyrimidin-2-one,NC1=NC(=O)N(C2CC(F)C(CO)O2)C=C1,-1.18
2-chloro-4-[(4-hydroxyphenyl)diazenyl]benzoic acid,O=C(O)C1=C(Cl)C=C(N=NC2=CC=C(O)C=C2)C=C1,-2.62
"2-(hydroxymethyl)-6-(3-nitrophenoxy)oxane-3,4,5-triol",C1=CC(=CC(=C1)OC2C(C(C(C(O2)CO)O)O)O)[N+](=O)[O-],-1.28
6-[Hydroxy(4-quinolinyl)methyl]quinuclidine-3-carboxylic acid,O=C(O)C1CN2CCC1CC2C(O)C1=CC=NC2=C1C=CC=C2,-1.94
"3-[(2-Nitrophenyl)hydrazono]-6-oxo-1,4-cyclohexadiene-1-carboxylic acid",C1=CC=C(C(=C1)NN=C2C=CC(=O)C(=C2)C(=O)O)[N+](=O)[O-],-2.01
"N-(3-bromophenyl)-7-(methoxymethyl)-7,8-dihydro-[1,4]dioxino[3,2-g]quinazolin-4-amine",COCC1COC2=C(C=C3C(=C2)N=CN=C3NC2=CC(Br)=CC=C2)O1,-3.22
"(1,5,8a-trimethyl-2,8-dioxo-3a,4,5,5a,9,9a-hexahydro-1H-azuleno[6,5-b]furan-9-yl) acetate",CC(=O)OC1C2C(CC(C)C3C=CC(=O)C31C)OC(=O)C2C,-2.19
"N-(3-iodophenyl)-7-(methoxymethyl)-7,8-dihydro-[1,4]dioxino[3,2-g]quinazolin-4-amine",COCC1COC2=C(C=C3C(=C2)N=CN=C3NC2=CC(I)=CC=C2)O1,-3.52
1-[(2-carboxy-5-oxopyrrolidin-1-yl)methyl]-5-oxopyrrolidine-2-carboxylic acid,O=C(O)C1CCC(=O)N1CN1C(=O)CCC1C(=O)O,-1.31
"2-[4-[(4-methoxyphenyl)methyl]-2,5-dioxoimidazolidin-1-yl]propanoic acid",COC1=CC=C(CC2NC(=O)N(C(C)C(=O)O)C2=O)C=C1,-0.86
2-[(4-fluorophenyl)sulfonylamino]-~{N}-(2-hydroxyoxolan-3-yl)-3-methylbutanamide,CC(C)C(NS(=O)(=O)C1=CC=C(F)C=C1)C(=O)NC1CCOC1O,-2.38
N-(2-hydroxyoxolan-3-yl)-4-methyl-2-(phenylcarbamothioylamino)pentanamide,CC(C)CC(NC(=S)NC1=CC=CC=C1)C(=O)NC1CCOC1O,-2.37
"7-chloro-3',4,6-trimethoxy-5'-methylspiro[1-benzofuran-2,6'-cyclohex-2-ene]-1',3-dione",COC1=CC(=O)C2(OC3=C(C2=O)C(OC)=CC(OC)=C3Cl)C(C)C1,-4.4
2-[(2-amino-4-methylpentanoyl)amino]-3-(1H-indol-3-yl)propanoic acid,CC(C)CC(N)C(=O)NC(CC1=CNC2=C1C=CC=C2)C(=O)O,-1.12
6-[Hydroxy(6-methoxy-4-quinolinyl)methyl]quinuclidine-3-carboxylic acid,COC1=CC2=C(C=C1)N=CC=C2C(O)C1CC2CCN1CC2C(=O)O,-2.03
"7-Chloro-2',4'-dihydroxy-4,6-dimethoxy-6'-methyl-3H-spiro[1-benzofuran-2,1'-cyclohexan]-3-one",COC1=CC(OC)=C(Cl)C2=C1C(=O)C1(O2)C(C)CC(O)CC1O,-2.34
"4-(3,14-dihydroxy-10,13-dimethyl-1,2,3,4,5,6,7,8,9,11,12,15,16,17-tetradecahydrocyclopenta[a]phenanthren-17-yl)-5H-furan-2-one",CC12CCC(O)CC1CCC1C2CCC2(C)C(C3=CC(=O)OC3)CCC12O,-4.57
4-phenyldiazenylphenol,OC1=CC=C(N=NC2=CC=CC=C2)C=C1,-3.95
"4-phenyldiazenylbenzene-1,3-diol",OC1=CC(O)=C(N=NC2=CC=CC=C2)C=C1,-3.08
"14-hydroxy-8,16-diazahexacyclo[11.5.2.1^{1,8}.0^{2,7}.0^{16,19}.0^{12,21}]henicosa-2,4,6,10-tetraene-9,15-dione",O=C1C(O)C2CC3N1CCC31C3=C(C=CC=C3)N3C(=O)C=CC2C31,-2.11
4-[(4-hydroxyphenyl)diazenyl]benzoic acid,O=C(O)C1=CC=C(N=NC2=CC=C(O)C=C2)C=C1,-4.38
2-hydroxy-5-phenyldiazenylbenzoic acid,O=C(O)C1=C(O)C=CC(N=NC2=CC=CC=C2)=C1,-3.05
"1-(1-phenylpyrazolo[4,5-b]quinoxalin-3-yl)propane-1,2,3-triol",OCC(O)C(O)C1=NN(C2=CC=CC=C2)C2=C1N=C1C=CC=CC1=N2,-3.13
"3,3-dimethyl-7-oxo-6-[[2-(phenoxy)acetyl]amino]-4-thia-1-azabicyclo[3.2.0]heptane-2-carboxylic acid",CC1(C)SC2C(NC(=O)COC3=CC=CC=C3)C(=O)N2C1C(=O)O,-2.81
6-hydroxy-5-(phenylmethyl)-2-propan-2-ylmorpholin-3-one,CC(C)C1OC(O)C(CC2=CC=CC=C2)NC1=O,-2.28
6-hydroxy-2-(2-methylpropyl)-5-(phenylmethyl)morpholin-3-one,CC(C)CC1OC(O)C(CC2=CC=CC=C2)NC1=O,-2.12
"benzene-1,4-dicarbohydrazide",NNC(=O)C1=CC=C(C(=O)NN)C=C1,-2.29
2-amino-2-phenyl-N-(1-phenylethyl)acetamide,CC(NC(=O)C(N)C1=CC=CC=C1)C1=CC=CC=C1,-1.66
"5-chloro-6-(pyrrolidin-1-ylmethyl)-1H-pyrimidine-2,4-dione",O=C1NC(=O)C(Cl)=C(CN2CCCC2)N1,-1.54
"5-bromo-6-(pyrrolidin-1-ylmethyl)-1H-pyrimidine-2,4-dione",O=C1NC(=O)C(Br)=C(CN2CCCC2)N1,-1.78
N-methyl-3-phenyl-3-[4-(trifluoromethyl)phenoxy]propan-1-amine,CNCCC(OC1=CC=C(C(F)(F)F)C=C1)C1=CC=CC=C1,-1.59
"2,4,5-trihydroxy-2-(hydroxymethyl)pentanoic acid",O=C(O)C(O)(CO)CC(O)CO,0.61
"1,2,4,5-Tetrabromobenzene",Brc1cc(Br)c(Br)cc1Br,-6.98
"1,2-Dichlorotetrafluoroethane",FC(F)(Cl)C(F)(F)Cl,-2.74
"1,8-Cineole",CC12CCC(CC1)C(C)(C)O2,-1.74
1-Butene,CCC=C,-1.94
1-Decene,CCCCCCCCC=C,-5.51
1-Iodonapthalene,Ic1cccc2ccccc12,-4.55
1-Propanol,CCCO,0.62
"2,2',3,3',4,4',5,5',6,6'-PCB",Clc1c(Cl)c(Cl)c(c(Cl)c1Cl)c2c(Cl)c(Cl)c(Cl)c(Cl)c2Cl ,-11.6
"2,2',3,4,5-PCB",Clc1cc(Cl)c(cc1Cl)c2cccc(Cl)c2Cl ,-7.21
"2,2',3,4,6-PCB",Clc1ccc(c(Cl)c1)c2c(Cl)ccc(Cl)c2Cl ,-7.43
"2,2,3-Trimethylbutane",CC(C)C(C)(C)C,-4.36
"2,3,4,5-Tetrachlorophenol",Oc1cc(Cl)c(Cl)c(Cl)c1Cl,-3.15
"2,3,4,6-Tetrachlorophenol",Oc1c(Cl)cc(Cl)c(Cl)c1Cl,-3.1
"2',3,4-PCB",Clc1ccc(cc1)c2cccc(Cl)c2Cl ,-6.29
"2,3,4-Trichlorophenol",Oc1ccc(Cl)c(Cl)c1Cl,-2.67
"2,3,5,6-Tetrachlorophenol",Oc1c(Cl)c(Cl)cc(Cl)c1Cl,-3.37
"2,3,5-Trichlorophenol",Oc1cc(Cl)cc(Cl)c1Cl,-2.67
"2,4,5-PCB",Clc1ccc(cc1)c2cc(Cl)ccc2Cl ,-6.27
"2,6-Dichlorophenol",Oc1c(Cl)cccc1Cl,-1.79
2-Bromotoluene,Cc1ccccc1Br,-2.23
2-Ethyl-2-hexanal,CCCC=C(CC)C=O,-2.46
2-Ethylbutanal,CCC(CC)C=O,-1.52
2-Methylheptane,CCCCCC(C)C,-5.08
2-Propanol,CC(C)O,0.43
"3,4-Dimethylphenol",Cc1ccc(O)cc1C,-1.38
3-Heptanoyloxymethylphenytoin,O=C1N(COC(=O)CCCCCC)C(=O)C(N1)(c2ccccc2)c3ccccc3,-6.301
3-Hexanoyloxymethylphenyltoin,O=C1N(COC(=O)CCCCC)C(=O)C(N1)(c2ccccc2)c3ccccc3,-5.886
3-Methyl-2-butanol,CC(C)C(C)O,-0.18
3-Methyl-2-pentanol,CCC(C)CCO,-0.72
3-Methylcholanthrene,c1cc(C)cc2c1c3cc4cccc5CCc(c45)c3cc2,-7.92
5-Ethyl-5-isopropylbarbituric acid,O=C1NC(=O)NC(=O)C1(CC)C(C)C,-2.148
5-Nonanone,CCCCC(=O)CCCC,-2.58
Acetonitrile,CC#N,0.26
acetyl sulfisoxazole,CC(=O)N(S(=O)c1ccc(N)cc1)c2onc(C)c2C ,-3.59
aldosterone,CC13CCC(=O)C=C1CCC4C2CCC(C(=O)CO)C2(CC(O)C34)C=O ,-3.85
Amigdalin,OCC3OC(OCC2OC(OC(C#N)c1ccccc1)C(O)C(O)C2O)C(O)C(O)C3O ,-0.77
Apazone,CCCC1C(=O)N3N(C1=O)c2cc(C)ccc2N=C3N(C)C ,-3.5380000000000003
"Atovaquone(0,430mg/ml) - neutral",OC4=C(C1CCC(CC1)c2ccc(Cl)cc2)C(=O)c3ccccc3C4=O,-5.931
Azodrin,CNC(=O)C=C(C)OP(=O)(OC)OC,0.6509999999999999
Carbaryl,CNC(=O)Oc1cccc2ccccc12,-3.224