Name,SMILES,Solubility
alpha-cypermethrin,CC1(C)[C@@H](C=C(Cl)Cl)[C@H]1C(=O)OC(C#N)c2cccc(Oc3ccccc3)c2,-7.6194
hydramethylnon,CC1(C)CNC(=NC1)N\N=C(/C=C/c2ccc(cc2)C(F)(F)F)\C=C\c3ccc(cc3)C(F)(F)F,-7.916
"dibenzofuran, 1,2,3,4,6,7,8-heptachloro-",Clc1cc2c(oc3c(Cl)c(Cl)c(Cl)c(Cl)c23)c(Cl)c1Cl,-11.4817
fenpropimorph,CC(CN1C[C@H](C)O[C@H](C)C1)Cc2ccc(cc2)C(C)(C)C,-4.8487
"dibenzofuran, 2,3,7,8-tetrabromo-",Brc1cc2oc3cc(Br)c(Br)cc3c2cc1Br,-6.8395
prochloraz,CCCN(CCOc1c(Cl)cc(Cl)cc1Cl)C(=O)n2ccnc2,-4.0445
"glycine, n-(aminocarbonyl)-n-nitroso-, ethyl est",CCOC(=O)CN(N=O)C(N)=O,0.7566
"2,2',4,5,5'-pentabromobiphenyl",Brc1ccc(Br)c(c1)c2cc(Br)c(Br)cc2Br,-9.7256
"1,7-naphthyridin-8(7h)-one",O=C1NC=Cc2cccnc12,-1.1428
azafenidin,Clc1cc(Cl)c(cc1OCC#C)N2N=C3CCCCN3C2=O,-4.3251
cyhalothrin,CC1(C)C(\C=C(/Cl)C(F)(F)F)C1C(=O)OC(C#N)c2cccc(Oc3ccccc3)c2,-7.9541
forchlorfenuron,Clc1cc(NC(=O)Nc2ccccc2)ccn1,-3.8028
"2,2',4,6'-tetrachlorobiphenyl",Clc1ccc(c(Cl)c1)c2c(Cl)cccc2Cl,-6.65
"1,1'-biphenyl, 2,2',3,4',5-pentachloro-",Clc1ccc(c(Cl)c1)c2cc(Cl)cc(Cl)c2Cl,-7.82
"1,1'-biphenyl, 2,3,3',5',6-pentachloro-",Clc1cc(Cl)cc(c1)c2c(Cl)ccc(Cl)c2Cl,-7.95
"1,1'-biphenyl, 2,3,4',5,6-pentachloro-",Clc1ccc(cc1)c2c(Cl)c(Cl)cc(Cl)c2Cl,-7.88
"2,3',4,5,5'-pentachlorobiphenyl",Clc1cc(Cl)cc(c1)c2cc(Cl)c(Cl)cc2Cl,-7.47
"1,1'-biphenyl, 2,2',3,4,5',6-hexachloro-",Clc1ccc(Cl)c(c1)c2c(Cl)cc(Cl)c(Cl)c2Cl,-8.01
"2,2',3,4,5,6'-hexachlorobiphenyl",Clc1cc(c(Cl)c(Cl)c1Cl)c2c(Cl)cccc2Cl,-8.13
"2,2',3,3',4,5,5',6-octachlorobiphenyl",Clc1cc(Cl)c(Cl)c(c1)c2c(Cl)c(Cl)c(Cl)c(Cl)c2Cl,-9.42
proglinazine ethyl,CCOC(=O)CNc1nc(Cl)nc(NC(C)C)n1,-2.5622
"guanidine, n,n'-bis(4-methoxyphenyl)-",COc1ccc(NC(=N)Nc2ccc(OC)cc2)cc1,-2.7345
benfuresate,CC[S](=O)(=O)Oc1ccc2OCC(C)(C)c2c1,-2.9921
"acetamide, n-acetyl-2-(benzoyloxy)-",CC(=O)NC(=O)COC(=O)c1ccccc1,-2.4003
"2,2',4-trichlorodiphenyl ether",Clc1ccc(Oc2ccccc2Cl)c(Cl)c1,-4.9499
buprofezin,CC(C)N1C(=O)N(CSC1=NC(C)(C)C)c2ccccc2,-5.5307
fluroxypyr,Nc1c(Cl)c(F)nc(OCC(O)=O)c1Cl,-3.4475
fluvalinate,CC(C)C(Nc1ccc(cc1Cl)C(F)(F)F)C(=O)OC(C#N)c2cccc(Oc3ccccc3)c2,-8.0025
"ethanol, 2-bromo-2,2-dichloro-",OCC(Cl)(Cl)Br,-0.4424
cyprofuram,Clc1cccc(c1)N(C2CCOC2=O)C(=O)C3CC3,-2.6878
"2,2,4-pentanetricarboxylic acid",CC(CC(C)(C(O)=O)C(O)=O)C(O)=O,-0.1086
"2-furancarboxylic acid, 3,4-dichloro-",OC(=O)c1occ(Cl)c1Cl,-1.8263
"1,1'-biphenyl, 2,3,3',4',5,5',6-heptachloro-",Clc1cc(Cl)cc(c1)c2c(Cl)c(Cl)c(Cl)c(Cl)c2Cl,-9.1
haloxyfop-methyl,COC(=O)C(C)Oc1ccc(Oc2ncc(cc2Cl)C(F)(F)F)cc1,-4.6064
fluazifop - butyl,CCCCOC(=O)C(C)Oc1ccc(Oc2ccc(cn2)C(F)(F)F)cc1,-5.5836
"benzoic acid, 2-[4,5-dihydro-4-methyl-4-(1-methy",COC(=O)c1cc(C)ccc1C2=NC(C)(C(C)C)C(=O)N2,-2.3262
flucythrinate,CC(C)C(C(=O)OC(C#N)c1cccc(Oc2ccccc2)c1)c3ccc(OC(F)F)cc3,-6.8765
"3-pyridinecarboxylic acid, octyl ester",CCCCCCCCOC(=O)c1cccnc1,-3.0929
"2,2'4,5-tetrachlorobiphenyl",Clc1ccccc1c2cc(Cl)c(Cl)cc2Cl,-7.2505
"2,3',4',5-tetrachlorobiphenyl",Clc1ccccc1c2cc(Cl)c(Cl)c(Cl)c2,-6.9069
"2',3,4,5,5'-pentachlorobiphenyl",Clc1ccc(Cl)c(c1)c2cc(Cl)c(Cl)c(Cl)c2,-7.3149
novantrone,[H+].[H+].[Cl-].[Cl-].OCCNCCNc1ccc(NCCNCCO)c2C(=O)c3c(O)ccc(O)c3C(=O)c12,-1.8388
"dl-alanine, n-[(ethylthio)thioxomethyl]-",CCSC(=S)NC(C)C(O)=O,-1.2343
"1,3,2-oxazaphosphepin-2(3h)-amine, n,n-bis(2-chl",ClCCN(CCCl)[P]1(=O)NCCCCO1,-0.9624
"benzenesulfonamide, 4-amino-n-(5-propyl-1,3,4-th",CCCc1sc(N[S](=O)(=O)c2ccc(N)cc2)nn1,-3.3075
fenoxaprop-ethyl,CCOC(=O)[C@@H](C)Oc1ccc(Oc2oc3cc(Cl)ccc3n2)cc1,-5.6042
pyrazoxyfen,Cn1nc(C)c(C(=O)c2ccc(Cl)cc2Cl)c1OCC(=O)c3ccccc3,-2.6514
benalaxyl,COC(=O)C(C)N(C(=O)Cc1ccccc1)c2c(C)cccc2C,-3.9442
"cyclopropanecarboxylic acid, 3-(2,2-dichloroethe",CC1(C)C(C=C(Cl)Cl)C1C(=O)OC(C#N)c2cccc(Oc3ccccc3)c2,-6.5587
"propanediamide, 2-(hydroxyimino)-",NC(=O)C(=NO)C(N)=O,-0.0384
"2-propenoic acid, 2,3,3-tribromo-",OC(=O)C(Br)=C(Br)Br,-1.3593
"2-propenoic acid, 2,3-dibromo-3-iodo-",OC(=O)C(Br)=C(Br)I,-1.0197
"ethanesulfonamide, n-(ethylsulfonyl)-",CC[S](=O)(=O)N[S](=O)(=O)CC,0.5413
fenoxycarb,CCOC(=O)NCCOc1ccc(Oc2ccccc2)cc1,-4.7009
azo dye n5,CCCCN(CCOC(C)=O)c1ccc(N=Nc2c(cc(cc2C#N)[N+]([O-])=O)C#N)c(C)c1,-8.8809
flurazole,FC(F)(F)c1nc(Cl)sc1C(=O)OCc2ccccc2,-5.8085
"1,2-benzenediol, 4-(1-propenyl)-",CC=Cc1ccc(O)c(O)c1,-1.3505
imiprothrin,CC(C)=CC1C(C(=O)OCN2C(=O)CN(CC#C)C2=O)C1(C)C,-3.5321
mefenacet,CN(C(=O)COc1sc2ccccc2n1)c3ccccc3,-4.8727
"2,3',4,5-tetrachlorobiphenyl",Clc1cccc(c1)c2cc(Cl)c(Cl)cc2Cl,-7.1299
"1,1'-biphenyl, 2,2',3,5,6-pentachloro-",Clc1ccccc1c2c(Cl)c(Cl)cc(Cl)c2Cl,-7.3999
"1,1'-biphenyl, 2,2',3,4,6'-pentachloro-",Clc1ccc(c(Cl)c1Cl)c2c(Cl)cccc2Cl,-6.7798
"propanoic acid, 2-hydroxy-, 2-(hexyloxy)-1-methy",CCCCCCOC(=O)C(C)OC(=O)C(C)O,-2.4884
"2-pyrimidinecarboxamide, 4,6-dimethyl-",Cc1cc(C)nc(n1)C(N)=O,0.1216
ketanserin,Fc1ccc(cc1)C(=O)C2CCN(CC2)CCN3C(=O)Nc4ccccc4C3=O,-4.5971
aclonifen,Nc1c(Cl)c(Oc2ccccc2)ccc1[N+]([O-])=O,-5.0248
"hydrazinecarboxamide, n-(4-ethoxyphenyl)-",CCOc1ccc(NC(=O)NN)cc1,-1.6471
clofentezine,Clc1ccccc1c2nnc(nn2)c3ccccc3Cl,-5.4817
sulfometuron (ph 5-7),COC(=O)c1ccccc1[S](=O)(=O)NC(=O)Nc2nc(C)cc(C)n2,-3.1742
"1,1'-biphenyl, 2,3,3',4-tetrachloro-",Clc1cccc(c1)c2ccc(Cl)c(Cl)c2Cl,-6.77
"1,1'-biphenyl, 2,3,4',5-tetrachloro-",Clc1ccc(cc1)c2cc(Cl)cc(Cl)c2Cl,-6.77
"1,1'-biphenyl, 2,3,3',5,6-pentachloro-",Clc1cccc(c1)c2c(Cl)c(Cl)cc(Cl)c2Cl,-7.76
"2,3,4,4',5-pentachlorobiphenyl",Clc1ccc(cc1)c2cc(Cl)c(Cl)c(Cl)c2Cl,-7.3102
"1,1'-biphenyl, 2,3,4,4',6-pentachloro-",Clc1ccc(cc1)c2c(Cl)cc(Cl)c(Cl)c2Cl,-7.95
"2,3,3',4,4',6-hexachlorobiphenyl",Clc1ccc(cc1Cl)c2c(Cl)cc(Cl)c(Cl)c2Cl,-7.6505
"2,3,3',4',5,6-hexachlorobiphenyl",Clc1ccc(cc1Cl)c2c(Cl)c(Cl)cc(Cl)c2Cl,-8.48
"1,1'-biphenyl, 2,3,3',4',5',6-hexachloro-",Clc1ccc(Cl)c(c2cc(Cl)c(Cl)c(Cl)c2)c1Cl,-8.27
"2,3,3',5,5',6-hexachlorobiphenyl",Clc1cc(Cl)cc(c1)c2c(Cl)c(Cl)cc(Cl)c2Cl,-8.2696
"1,1'-biphenyl, 2,2',3,4,4',5,6-heptachloro-",Clc1ccc(c(Cl)c1)c2c(Cl)c(Cl)c(Cl)c(Cl)c2Cl,-8.9706
"1,1'-biphenyl, 2,3,3',4,4',5',6-heptachloro-",Clc1cc(Cl)c(c2cc(Cl)c(Cl)c(Cl)c2)c(Cl)c1Cl,-9.1
"1,1'-biphenyl, 2,2',3,4,4',5,6,6'-octachloro-",Clc1cc(Cl)c(c(Cl)c1)c2c(Cl)c(Cl)c(Cl)c(Cl)c2Cl,-9.48
"1,1'-biphenyl, 2,3,3',4,4',5,5',6-octachloro-",Clc1cc(cc(Cl)c1Cl)c2c(Cl)c(Cl)c(Cl)c(Cl)c2Cl,-9.6997
"1,1'-biphenyl, 2,2',3,4',5,6'-heptachloro-",Clc1cc(Cl)c(c(Cl)c1)c2c(Cl)c(Cl)cc(Cl)c2Cl,-8.4901
"2,5-dibromobenzaldehyde",Brc1ccc(Br)c(C=O)c1,-3.8003
"methanedisulfonic acid, chloro-",O[S](=O)(=O)C(Cl)[S](O)(=O)=O,0.6765
bromobutide,CC(C)(C)C(Br)C(=O)NC(C)(C)c1ccccc1,-4.9455
fenpiclonil,Clc1cccc(c1Cl)c2c[nH]cc2C#N,-4.6937
oxabetrinil,N#CC(=N\OCC1OCCO1)/c2ccccc2,-4.0649
diclobutrazol isomers,CC(C)(C)C(O)C(Cc1ccc(Cl)cc1Cl)n2cncn2,-4.5619
enalapril,CCOC(=O)[C@H](CCc1ccccc1)N[C@@H](C)C(=O)N2CCC[C@H]2C(O)=O,-1.3609
"phosphonic acid, [[4-(2-benzothiazolyl)phenyl]me",CCO[P](=O)(Cc1ccc(cc1)c2sc3ccccc3n2)OCC,-4.0017
"4h-imidazol-4-one, 2-amino-1-ethyl-1,5-dihydro-",CCN1CC(=O)N=C1N,-0.165
tecloftalam,OC(=O)c1c(Cl)c(Cl)c(Cl)c(Cl)c1C(=O)Nc2cccc(Cl)c2Cl,-4.5051
"methanetrisulfonic acid, chloro-",O[S](=O)(=O)C(Cl)([S](O)(=O)=O)[S](O)(=O)=O,0.5366
"l-alanine, n-(chloroacetyl)-, ethyl ester",CCOC(=O)[C@H](C)NC(=O)CCl,-0.4628
"benzoic acid, 2-(acetyloxy)-, (methylthio)methyl",CSCOC(=O)c1ccccc1OC(C)=O,-2.6404
"benzoic acid, 2-(acetyloxy)-, (methylsulfinyl)me",CC(=O)Oc1ccccc1C(=O)OC[S](C)=O,-1.7824
"benzoic acid, 2-(acetyloxy)-, (methylsulfonyl)me",CC(=O)Oc1ccccc1C(=O)OC[S](C)(=O)=O,-3.3936
2-(2-chlorophenoxy)propanoic acid,CC(Oc1ccccc1Cl)C(O)=O,-2.2232
quizalofop,CC(Oc1ccc(Oc2cnc3cc(Cl)ccc3n2)cc1)C(O)=O,-6.0604
flutriafol (pp450),OC(Cn1cncn1)(c2ccc(F)cc2)c3ccccc3F,-3.3651
"2',3,3',4,5-pentachlorobiphenyl",Clc1cccc(c2cc(Cl)c(Cl)c(Cl)c2)c1Cl,-7.4052
glufosinate-ammonium,[NH4+].C[P](O)(=O)CCC(N)C([O-])=O,0.8397
"glycine, n-(n-l-leucyl-l-alanyl)-",CC(C)C[C@H](N)C(=O)N[C@@H](C)C(=O)NCC(O)=O,-0.8953
"carbamic acid, ethylmethyl-, ethyl ester",CCOC(=O)N(C)CC,-0.4189
pyraclofos,CCCS[P](=O)(OCC)Oc1cnn(c1)c2ccc(Cl)cc2,-4.0388
fluoroglycofenethyl,CCOC(=O)COC(=O)c1cc(Oc2ccc(cc2Cl)C(F)(F)F)ccc1[N+]([O-])=O,-5.8729
"2-butanol, 4,4-diethoxy-",CCOC(CC(C)O)OCC,0.0909
"4(1h)-pteridinone, hydrazone",NN=C1N=CNc2nccnc12,-1.8632
oxadixyl,COCC(=O)N(N1CCOC1=O)c2c(C)cccc2C,-1.913
"3-pyridinecarboxamide, n-hexyl-",CCCCCCNC(=O)c1cccnc1,-2.5221
"2,4,6(1h,3h,5h)-pyrimidinetrione, 1-(2,3-dihydro",CCC1(C(=O)NC(=O)N(CC(O)CO)C1=O)c2ccccc2,-1.7872
hexythiazox,C[C@H]1C(SC(=O)N1C(=O)NC2CCCCC2)c3ccc(Cl)cc3,-5.8487
fluazifop-p-butyl,CCCCOC(=O)[C@@H](C)Oc1ccc(Oc2ccc(cn2)C(F)(F)F)cc1,-5.2826
harmony,COC(=O)c1sccc1[S](=O)(=O)NC(=O)Nc2nc(C)nc(OC)n2,-2.2379
tetrafluthrin,Cc1c(F)c(F)c(COC(=O)C2C(\C=C(/Cl)C(F)(F)F)C2(C)C)c(F)c1F,-7.3209
"butanamide, n,n,2-triethyl-",CCC(CC)C(=O)N(CC)CC,-1.0876
simvastatin,CCC(C)(C)C(=O)O[C@H]1C[C@@H](C)C=C2C=C[C@H](C)[C@H](CC[C@@H]3C[C@@H](O)CC(=O)O3)[C@@H]12,-7.1447
hexaconazole,CCCCC(O)(Cn1cncn1)c2ccc(Cl)cc2Cl,-4.2668
diafenthiuron,CC(C)c1cc(Oc2ccccc2)cc(C(C)C)c1NC(=S)NC(C)(C)C,-6.8068
etofenprox,CCOc1ccc(cc1)C(C)(C)COCc2cccc(Oc3ccccc3)c2,-8.5758
imazethapyr,CCc1cnc(C2=NC(C)(C(C)C)C(=O)N2)c(c1)C(O)=O,-2.3153
imazamethabenz (isomer mix),COC(=O)c1ccc(C)cc1C2=NC(C)(C(C)C)C(=O)N2,-2.4599
"3-pyridinecarboxamide, n-octyl-",CCCCCCCCNC(=O)c1cccnc1,-3.0081
"3-pyridinecarboxamide, n-nonyl-",CCCCCCCCCNC(=O)c1cccnc1,-3.1398
"3-pyridinecarboxamide, n-decyl-",CCCCCCCCCCNC(=O)c1cccnc1,-3.0765
"3-pyridinecarboxamide, n-undecyl-",CCCCCCCCCCCNC(=O)c1cccnc1,-3.0266
"3-pyridinecarboxamide, n-dodecyl-",CCCCCCCCCCCCNC(=O)c1cccnc1,-3.2078
clomazone,CC1(C)CON(Cc2ccccc2Cl)C1=O,-2.3383
triasulfuron,COc1nc(C)nc(NC(=O)N[S](=O)(=O)c2ccccc2OCCCl)n1,-4.0989
"5,8-quinolinedione, dioxime",ON=C1C=CC(=NO)c2ncccc12,-3.7998
triadimenol (diastereoisomer b),CC(C)(C)[C@H](O)[C@H](Oc1ccc(Cl)cc1)n2cncn2,-3.9524
inabenfide,OC(c1ccccc1)c2cc(Cl)ccc2NC(=O)c3ccncc3,-5.5299
isoxaben,CCC(C)(CC)c1cc(NC(=O)c2c(OC)cccc2OC)on1,-5.3694
"1-butanol, 3-ethoxy-",CCOC(C)CCO,-0.3736
bifenthrin,Cc1c(COC(=O)C2C(\C=C(/Cl)C(F)(F)F)C2(C)C)cccc1c3ccccc3,-6.6262
benzofenap,Cn1nc(C)c(C(=O)c2ccc(Cl)c(C)c2Cl)c1OCC(=O)c3ccc(C)cc3,-6.5209
bensulfuron-methyl (ph7),COC(=O)c1ccccc1C[S](=O)(=O)NC(=O)Nc2nc(OC)cc(OC)n2,-3.534
teflubenzuron,Fc1cccc(F)c1C(=O)NC(=O)Nc2cc(Cl)c(F)c(Cl)c2F,-7.3023
alanycarb,CCOC(=O)CCN(Cc1ccccc1)SN(C)C(=O)O\N=C(\C)SC,-4.3005
diflufenican,Fc1ccc(NC(=O)c2cccnc2Oc3cccc(c3)C(F)(F)F)c(F)c1,-6.8969
"2-propenoic acid, 3-bromo-2,3-diiodo-",OC(=O)C(I)=C(Br)I,-1.2891
uniconazole-p,CC(C)(C)[C@H](O)\C(=C/c1ccc(Cl)cc1)n2cncn2,-4.5403
uniconazole,CC(C)(C)C(O)\C(=C/c1ccc(Cl)cc1)n2cncn2,-4.5403
diniconazole,CC(C)(C)C(O)\C(=C/c1ccc(Cl)cc1Cl)n2cncn2,-4.9115
phosmethylan,CCCC(=O)N(CS[P](=S)(OC)OC)c1ccccc1Cl,-5.204
"8-quinolinecarboxylic acid, 5-nitro-",OC(=O)c1ccc(c2cccnc12)[N+]([O-])=O,-3.1656
chlozolinate,CCOC(=O)C1(C)OC(=O)N(C1=O)c2cc(Cl)cc(Cl)c2,-5.2203
"ethanol, 2-[(2-amino-9h-purin-9-yl)methoxy]-",Nc1ncc2ncn(COCCO)c2n1,-1.0775
clomeprop,CC(Oc1ccc(Cl)c(C)c1Cl)C(=O)Nc2ccccc2,-7.0057
"1-pentanesulfinothioic acid, s-pentyl ester",CCCCCS[S](=O)CCCCC,-3.1711
"pentanal, 5-methoxy-",COCCCCC=O,0.4574
"benzenemethanol, 2,4-dichloro-, propanoate",CCC(=O)OCc1ccc(Cl)cc1Cl,-3.0665
flusilazole,C[Si](Cn1cncn1)(c2ccc(F)cc2)c3ccc(F)cc3,-3.7665
esprocarb,CCN(C(C)C(C)C)C(=O)SCc1ccccc1,-4.7337
primisulfuron-methyl,COC(=O)c1ccccc1[S](=O)(=O)NC(=O)Nc2nc(OC(F)F)cc(OC(F)F)n2,-5.152
imibenconazole,Clc1ccc(CSC(Cn2cncn2)=Nc3ccc(Cl)cc3Cl)cc1,-5.3842
propisochlor,CCc1cccc(C)c1N(COC(C)C)C(=O)CCl,-3.1882
fluazuron,Fc1cccc(F)c1C(=O)NC(=O)Nc2ccc(Cl)c(Oc3ncc(cc3Cl)C(F)(F)F)c2,-7.4033
"carbamic acid, (3,4-diethoxyphenyl)-, 1-methylet",CCOc1ccc(NC(=O)OC(C)C)cc1OCC,-4.0022
haloxyfop-etotyl,CCOCCOC(=O)C(C)Oc1ccc(Oc2ncc(cc2Cl)C(F)(F)F)cc1,-5.8739
butenachlor,CCc1cccc(CC)c1N(COC\C=C/C)C(=O)CCl,-4.0287
flumiclorac-pentyl,CCCCCOC(=O)COc1cc(N2C(=O)C3=C(CCCC3)C2=O)c(F)cc1Cl,-6.3508
dimethenamid,COCC(C)N(C(=O)CCl)c1c(C)scc1C,-2.3614
isoxapyrifop,CC(Oc1ccc(Oc2ncc(Cl)cc2Cl)cc1)C(=O)N3CCCO3,-4.5922
cinmethylin,CC(C)C12CCC(C)(O1)C(C2)OCc3ccccc3C,-3.6391
fluxofenim,FC(F)(F)C(=N/OCC1OCCO1)/c2ccc(Cl)cc2,-4.0138
"acrylic acid, 2,3-dibromo-3-chloro-",OC(=O)C(Br)=C(Cl)Br,-1.0071
"acrylic acid, 3,3-dibromo-2-chloro-",OC(=O)C(Cl)=C(Br)Br,-0.6873
"2-propanol, 1,1-dinitro-",CC(O)C([N+]([O-])=O)[N+]([O-])=O,0.0789
ferimzone,Cc1cc(C)nc(N\N=C(\C)c2ccccc2C)n1,-3.1959
"purine-2,8(3h,9h)-dione, 3-methyl-",CN1C(=O)N=CC2=C1NC(=O)N2,-0.794
triadimenol (diastereoisomer a),CC(C)(C)[C@@H](O)[C@H](Oc1ccc(Cl)cc1)n2cncn2,-3.6786
(+)(r)-6-hydroxy-4-methyl-caproaldehyde,C[C@@H](CCO)CCC=O,-1.0732
"2(3h)-pteridinone, 3-methyl-",CN1C=C2N=CC=NC2=NC1=O,-0.9089
"5-isobenzofurancarbonitrile, 1,3-dihydro-3-oxo-",O=C1OCc2ccc(cc12)C#N,-2.7021
"1-propanol, 2,2-bis(ethylsulfonyl)-",CC[S](=O)(=O)C(C)(CO)[S](=O)(=O)CC,-0.1653
"benzaldehyde, 2-amino-4-hydroxy-3-methoxy-",COc1c(N)c(C=O)ccc1O,-0.2232
"phthalic acid, 4-nitro-, 1-methyl ester",COC(=O)c1ccc(cc1C([O-])=O)[N+]([O-])=O,-2.0558
"glutamic acid, n-(2-cyanoethyl)-",OC(=O)CC[C@H](NCCC#N)C(O)=O,-1.3015
"barbituric acid, 5-acetonyl-5-ethyl-",CCC1(CC(C)=O)C(=O)NC(=O)NC1=O,-0.7661
"nonanoic acid, 2,3-dihydroxy-",CCCCCCC(O)C(O)C(O)=O,-1.5469
quinmerac,Cc1cnc2c(ccc(Cl)c2C(O)=O)c1,-2.9973
"isoleucine, n-(2-cyanoethyl)-",CC[C@H](C)[C@H](NCCC#N)C(O)=O,-0.9818
"2-pteridinol, 6,7-diethyl-",CCc1nc2cnc(O)nc2nc1CC,-2.2644
"propanoic acid, 2-(cyclohexyloxy)-2-methyl-",CC(C)(OC1CCCCC1)C(O)=O,-1.0798
"hydrocinnamic acid, .beta.-methoxy-",COC(CC(O)=O)c1ccccc1,-1.6952
"cyclohexane-1,3-dione, 2-nitro-5-phenyl-",[O-][N+](=O)C1C(=O)CC(CC1=O)c2ccccc2,-1.6688
"malonamide, 2,2-dihydroxy-n,n'diphenyl-",OC(O)(C(=O)Nc1ccccc1)C(=O)Nc2ccccc2,-2.4568
"barbituric acid, 5-(2-butenyl)-1,5-dimethyl-",CC=CCC1(C)C(=O)NC(=O)N(C)C1=O,-1.5445
2-hydroxy-but-3-enoic acid ethyl ester,CCOC(=O)C(O)C=C,0.3627
"pyran, 2,2'-oxybis[tetrahydro-6-methyl-",CC1CCCC(O1)OC2CCCC(C)O2,-1.1083
"phosphoric acid, methyl dipropyl ester",CCCO[P](=O)(OC)OCCC,-0.6592
"pyrimido[5,4-d]pyrimidine-2,4,8(3h)-trione, 1,7-",CN1C=NC2=C(N(C)C(=O)N(C)C2=O)C1=O,-1.985
"glycine, n-naphthalene-2-sulfonyl)-",[O-]C(=O)CN[S](=O)(=O)c1ccc2ccccc2c1,-2.8497
12-butyl-benz[a]anthracene,CCCCc1c2ccccc2cc3ccc4ccccc4c13,-7.5245
"butanoic acid, 2,2-dibromo-",CCC(Br)(Br)C(O)=O,-0.8722
pyrazosulfuron-ethyl,CCOC(=O)c1cnn(C)c1[S](=O)(=O)NC(=O)Nc2nc(OC)cc(OC)n2,-4.4561
"glycine, n-[n-(2-naphthalenylsulfonyl)glycyl]-",OC(=O)CNC(=O)CN[S](=O)(=O)c1ccc2ccccc2c1,-2.6954
cyproconazole,CC(C1CC1)C(O)(Cn2cncn2)c3ccc(Cl)cc3,-3.3189
cinosulfuron,COCCOc1ccccc1[S](=O)(=O)NC(=O)Nc2nc(OC)nc(OC)n2,-3.5372
cadusafos,CCO[P](=O)(SC(C)CC)SC(C)CC,-3.0376
"acetic acid, (cyclopentyloxy)-",OC(=O)COC1CCCC1,-0.8471
tebupirimfos,CCO[P](=S)(OC(C)C)Oc1cnc(nc1)C(C)(C)C,-4.7626
pyridaben,CC(C)(C)N1N=CC(=C(Cl)C1=O)SCc2ccc(cc2)C(C)(C)C,-7.483
thenylchlor,COc1ccsc1CN(C(=O)CCl)c2c(C)cccc2C,-4.4689
flurtamone,CNC1=C(C(=O)C(O1)c2ccccc2)c3cccc(c3)C(F)(F)F,-3.9788
"propanamide, 2-hydroxy-n-tetradecyl-",CCCCCCCCCCCCCCNC(=O)C(C)O,-3.9784
methyl (1-phenylsulfonyl) cyclopropane carboxyla,COC(=O)C1(CC1)[S](=O)(=O)c2ccccc2,-2.2601
dka-24,ClC(Cl)C(=O)N(CC=C)CC(=O)NCC=C,-1.0397
dithiopyr,CSC(=O)c1c(CC(C)C)c(C(=O)SC)c(nc1C(F)F)C(F)(F)F,-5.4575
"1,2,4-thiadiazol-5-amine, 3-methoxy-",COc1nsc(N)n1,-1.2427
"1,2,4-thiadiazole, 5-amino-3-ethoxy-",CCOc1nsc(N)n1,-0.6514
"1-propanol, 2,3-dimercapto-, 1-acetate",CC(=O)OCC(S)CS,-1.2208
"hexanamide, 2-ethylidene-",CCCCC(=CC)C(N)=O,-1.3717
"pyrazinamide, n-2-pyrimidinyl-",O=C(Nc1ncccn1)c2cnccn2,-0.3036
"3-pyridinecarboxylic acid, nonyl ester",CCCCCCCCCOC(=O)c1cccnc1,-3.0958
fosthiazate,CCO[P](=O)(SC(C)CC)N1CCSC1=O,-1.4589
flumetsulam,Cc1ccn2nc(nc2n1)[S](=O)(=O)Nc3c(F)cccc3F,-3.8248
"pyrazinamide, n-(4-methyl-2-pyrimidinyl)-",Cc1ccnc(NC(=O)c2cnccn2)n1,-0.7308
sulcotrione,C[S](=O)(=O)c1ccc(c(Cl)c1)C(=O)C2C(=O)CCCC2=O,-3.2994
"1(3h)-isobenzofuranone, 3,3-dimethyl-6-nitro-",CC1(C)OC(=O)c2cc(ccc12)[N+]([O-])=O,-3.0516
"phthalide, 3-ethyl-6-nitro-",CCC1OC(=O)c2cc(ccc12)[N+]([O-])=O,-2.55
"butanal, 3-hydroxy-2-methyl-",CC(O)C(C)C=O,-0.4906
"8-quinazolinol, 4-methyl-",Cc1ncnc2c(O)cccc12,-2.6025
"7(8h)-pteridinone, 6,8-dimethyl-",CN1C(=O)C(=Nc2cncnc12)C,-1.489
"2,6-piperidinedicarboxamide",NC(=O)C1CCCC(N1)C(N)=O,0.2893
"1,2-cyclohexanedione, 4-tert-pentyl-, dioxime",CCC(C)(C)C1CCC(=NO)C(C1)=NO,-3.9652
"8-quinazolinol, 4-propyl-",CCCc1ncnc2c(O)cccc12,-2.9206
"1-naphthalenepropanoic acid, .beta.-amino-, ()",[NH3+][C@H](CC([O-])=O)c1cccc2ccccc12,-1.5902
"3-pyridinecarboxylic acid, heptyl ester",CCCCCCCOC(=O)c1cccnc1,-2.7429
quizalofop-p-ethyl,CCOC(=O)[C@@H](C)Oc1ccc(Oc2cnc3cc(Cl)ccc3n2)cc1,-5.9694
halosulfuron-methyl,COC(=O)c1c(Cl)nn(C)c1[S](=O)(=O)NC(=O)Nc2nc(OC)cc(OC)n2,-4.4642
"quinoline, 5-acetamido-8-ethoxy-",CCOc1ccc(NC(C)=O)c2cccnc12,-1.5171
"phosphoric acid, dibutyl 4-ethoxybutyl ester",CCCCO[P](=O)(OCCCC)OCCCCOCC,-2.6468
acrinathrin,CC1(C)[C@@H](\C=C/C(=O)OC(C(F)(F)F)C(F)(F)F)[C@H]1C(=O)O[C@H](C#N)c2cccc(Oc3ccccc3)c2,-7.4325
tribenuron-methyl,COC(=O)c1ccccc1[S](=O)(=O)NC(=O)N(C)c2nc(C)nc(OC)n2,-3.8981
"butanoic acid, 2,2,4-trichloro-",OC(=O)C(Cl)(Cl)CCCl,-0.5831
"phthalic acid, 4-nitro-, 2-methyl ester",COC(=O)c1cc(ccc1C([O-])=O)[N+]([O-])=O,-1.721
"undecanoic acid, 11-[(6-aminohexyl)amino]-",NCCCCCCNCCCCCCCCCCC(O)=O,-2.3017
pefurazoate,CCC(N(Cc1occc1)C(=O)n2ccnc2)C(=O)OCCCC=C,-2.8919
"pteridine, 2-methoxy-",COc1ncc2nccnc2n1,-1.113
"2(1h)-pteridinone, 1-methyl-",CN1C(=O)N=Cc2nccnc12,-1.3713
"hexanamide, n-(aminocarbonyl)-2-ethylidene-",CCCC\C(=C\C)C(=O)NC(N)=O,-2.7883
"butane, 2-chloro-3-methoxy-",COC(C)C(C)Cl,-1.9986
"phthalide, 4-bromo-6,7-dimethoxy-",COc1cc(Br)c2COC(=O)c2c1OC,-3.9311
"4-pteridinol, 6,7-diethyl-",CCc1nc2ncnc(O)c2nc1CC,-1.9122
fenchlorazole-ethyl,CCOC(=O)c1nn(c2ccc(Cl)cc2Cl)c(n1)C(Cl)(Cl)Cl,-5.6516
flumioxazin,Fc1cc2OCC(=O)N(CC#C)c2cc1N3C(=O)C4=C(CCCC4)C3=O,-5.2966
"hexanedioic acid, 2,2-diphenyl-",OC(=O)CCCC(C(O)=O)(c1ccccc1)c2ccccc2,-3.1737
Imazapic,CC(C)C1(C)N=C(NC1=O)c2ncc(C)cc2C(O)=O,-2.0911
"2-benzofurancarboxylic acid, 3-methoxy-",COc1c(oc2ccccc12)C(O)=O,-2.8857
akh-7088,COC/C(=N/OCC(=O)OC)c1cc(Oc2ccc(cc2Cl)C(F)(F)F)ccc1[N+]([O-])=O,-5.6783
silafluofen,CCOc1ccc(cc1)[Si](C)(C)CCCc2ccc(F)c(Oc3ccccc3)c2,-8.6113
clodinafop-propargyl,C[C@@H](Oc1ccc(Oc2ncc(Cl)cc2F)cc1)C(=O)OCC#C,-4.9417
pyrimidifen,CCOCCc1ccc(OCCNc2ncnc(CC)c2Cl)c(C)c1C,-5.2409
"valeric acid, 4-(benzamido)-",CC(CCC(O)=O)NC(=O)c1ccccc1,-1.6917
2-bromo-4-methyl-5-nitro-1h-imidazole,Cc1nc(Br)[nH]c1[N+]([O-])=O,-1.7914
"acetamide, 2-(benzoyloxy)-n-methyl-",CNC(=O)COC(=O)c1ccccc1,-1.7178
"acetamide, 2-(benzoyloxy)-n-propyl-",CCCNC(=O)COC(=O)c1ccccc1,-2.5387
"acetamide, 2-(benzoyloxy)-n-(1,1-dimethylethyl)-",CC(C)(C)NC(=O)COC(=O)c1ccccc1,-2.8665
"acetamide, 2-[[(benzoyloxy)acetyl]amino]-",NC(=O)CNC(=O)COC(=O)c1ccccc1,-1.4983
"acetamide, 2-(benzoyloxy)-n,n-dimethyl-",CN(C)C(=O)COC(=O)c1ccccc1,-1.372
"acetamide, 2-(benzoyloxy)-n,n-dipropyl-",CCCN(CCC)C(=O)COC(=O)c1ccccc1,-2.3791
"acetamide, 2-(benzoyloxy)-n,n-dibutyl-",CCCCN(CCCC)C(=O)COC(=O)c1ccccc1,-3.5614
"acetamide, 2-(benzoyloxy)-n,n-bis(2-propenyl)-",C=CCN(CC=C)C(=O)COC(=O)c1ccccc1,-2.5626
"glycine, n-[(benzoyloxy)acetyl]-n-methyl-",CN(CC(O)=O)C(=O)COC(=O)c1ccccc1,-2.254
"piperidine, 1-[(benzoyloxy)acetyl]-",O=C(COC(=O)c1ccccc1)N2CCCCC2,-2.5011
"morpholine, 4-[(benzoyloxy)acetyl]-",O=C(COC(=O)c1ccccc1)N2CCOCC2,-1.7734
"butanoic acid, 2-(formylamino)-",CCC(NC=O)C(O)=O,-0.5918
tebuconazole,CC(C)(C)C(O)(CCc1ccc(Cl)cc1)Cn2cncn2,-3.932
"benzenesulfonamide, 4-[(2-hydroxyethyl)thio]-",N[S](=O)(=O)c1ccc(SCCO)cc1,-1.8239
"benzenesulfonamide, 4-[(3-hydroxypropyl)thio]-",N[S](=O)(=O)c1ccc(SCCCO)cc1,-2.2472
"benzenesulfonamide, 4-[(5-hydroxypentyl)thio]-",N[S](=O)(=O)c1ccc(SCCCCCO)cc1,-2.6618
"hexanedioic acid, 2,5-dihydroxy-2,5-dimethyl-",CC(O)(CCC(C)(O)C(O)=O)C(O)=O,-0.8372
"4-pyrimidinamine, 5-ethyl-2,6-dipropyl-",CCCc1nc(N)c(CC)c(CCC)n1,-2.5132
diflufenzopyr,C\C(=N/NC(=O)Nc1cc(F)cc(F)c1)c2ncccc2C(O)=O,-3.7248
"benzoic acid, o-phthalidyl-",OC(=O)c1ccccc1C2OC(=O)c3ccccc23,-3.1042
azacyclononadecan-2-one,O=C1CCCCCCCCCCCCCCCCCN1,-2.8474
propaquizafop,CC(Oc1ccc(Oc2cnc3cc(Cl)ccc3n2)cc1)C(=O)OCCON=C(C)C,-5.8479
fenpyroximate,Cn1nc(C)c(\C=N\OCc2ccc(cc2)C(=O)OC(C)(C)C)c1Oc3ccccc3,-7.4604