Name,SMILES,Solubility
m-hydroxyphenylacetic acid,OC(=O)Cc1cccc(O)c1,0.8177
"1-pentanamine, n,n-dipentyl-",CCCCCN(CCCCC)CCCCC,-4.0326
4-methylphenylisothiocyanate,Cc1ccc(cc1)N=C=S,-4.7213
p-methylstyrene,Cc1ccc(C=C)cc1,-3.1232
p-hydroxybenzyl alcohol,OCc1ccc(O)cc1,-1.2678
"1,4-benzenedicarboxaldehyde",O=Cc1ccc(C=O)cc1,-2.8265
methylbutyrate,CCCC(=O)OC,-0.8331
"1,2-propylene glycol diacetate",CC(COC(C)=O)OC(C)=O,-0.2046
"decanedioic acid, bis(2-ethoxyethyl) ester",CCOCCOC(=O)CCCCCCCCC(=O)OCCOCC,-3.1972
diethyl azelate,CCOC(=O)CCCCCCCC(=O)OCC,-2.99
methyl valerate,CCCCC(=O)OC,-1.3606
"1,4-diiodobenzene",Ic1ccc(I)cc1,-5.3723
3-nonanol,CCCCCCC(O)CC,-2.6608
"ethane, 1,2-diiodo-",ICCI,-3.2196
"3,3-dimethyl-1-butanol",CC(C)(C)CCO,-1.1308
"2,4-dimethyl-2-pentanol",CC(C)CC(C)(C)O,-0.9307
"urea, (1,1-dimethylpropyl)-",CCC(C)(C)NC(N)=O,-1.0142
2-methyl-2-hexanol,CCCCC(C)(C)O,-1.0784
2-methyl-2-heptanol,CCCCCC(C)(C)O,-1.7168
methyl isobutyl ether,COCC(C)C,-0.9007
methoxyacetic acid,COCC(O)=O,1.0454
2-nitroethanol,OCC[N+]([O-])=O,1.0406
ethyl isopropyl ether,CCOC(C)C,-0.5607
isopropyl formate,CC(C)OC=O,-0.6301
3-chloroiodobenzene,Clc1cccc(I)c1,-3.55
"2,4-dihydroxypyridine",OC1=CC(=O)C=CN1,-1.2498
"1,3-benzenedimethanol",OCc1cccc(CO)c1,-0.2328
24pyrimidinedione6methyl,CC1=CC(=O)NC(=O)N1,-1.2557
4-hydroxypyridine,O=C1C=CNC=C1,1.0218
"2-propanol, 1,3-bis(3-methylbutoxy)-",CC(C)CCOCC(O)COCCC(C)C,-1.3662
"hexanedioic acid, monoethyl ester",CCOC(=O)CCCCC(O)=O,-0.3602
4-methyl-1-pentanol,CC(C)CCCO,-1.1286
2-pentenoic acid,CC\C=C/C(O)=O,-0.2019
propyl isopropyl ether,CCCOC(C)C,-1.3373
1-propylnitrate,CCCO[N+]([O-])=O,-1.5044
3-bromopropanol,OCCCBr,0.0093
3-chloro-1-propanol,OCCCCl,0.4223
"ethane, 1-chloro-2-methoxy-",COCCCl,-0.0725
5-methyl-2-hexanol,CC(C)CCC(C)O,-1.375
"3-isopentyloxy-propane-1,2-diol",CC(C)CCOCC(O)CO,-1.2101
"hexanedioic acid, dimethyl ester",COC(=O)CCCCC(=O)OC,-1.4629
methyl n-butyl ether,CCCCOC,-0.9907
ethyl propyl ether,CCCOCC,-0.6806
n-amyl acetate,CCCCCOC(C)=O,-1.8841
"1,3-propanediol, diacetate",CC(=O)OCCCOC(C)=O,-0.2046
1-heptyne,CCCCCC#C,-3.0099
1-octyne,CCCCCCC#C,-3.662
n-tridecane,CCCCCCCCCCCCC,-7.5936
n-pentadecane,CCCCCCCCCCCCCCC,-9.4464
1-pentadecanol,CCCCCCCCCCCCCCCO,-6.3476
hexacosane,CCCCCCCCCCCCCCCCCCCCCCCCCC,-8.3339
hexatriacontane,CCCCCCCCCCCCCCCCCCCCCCCCCCCCCCCCCCCC,-8.4746
"1,1,1,2-tetrachloroethane",ClCC(Cl)(Cl)Cl,-2.1955
"acetic acid, dibromo-",OC(=O)C(Br)Br,0.9861
sulfasomizole,Cc1cc(N[S](=O)(=O)c2ccc(N)cc2)sn1,-1.0762
tetramethylurea,CN(C)C(=O)N(C)C,0.9349
tetrachlorophthalic acid,OC(=O)c1c(Cl)c(Cl)c(Cl)c(Cl)c1C(O)=O,-1.9264
bilirubin,CC1=C(C=C)/C(NC1=O)=C/c2[nH]c(Cc3[nH]c(\C=C\4NC(=O)C(=C4C)C=C)c(C)c3CCC(O)=O)c(CCC(O)=O)c2C,-4.8127
resorufin,Oc1ccc2N=C3C=CC(=O)C=C3Oc2c1,-1.0277
"4(1h)-pyrimidinone, 2,3-dihydro-5-methyl-2-thiox",CC1=CNC(=S)NC1=O,-2.4461
1-cyclohexene-1-carboxylic acid,OC(=O)C1=CCCCC1,-1.2558
p-benzoquinone oxime,Oc1ccc(cc1)N=O,-1.5462
isopropyl propionate,CCC(=O)OC(C)C,-1.2906
ethyl t-butyl ether,CCOC(C)(C)C,-0.9302
"4h-1,3,5-dithiazine, dihydro-2,4,6-trimethyl-,",CC1NC(C)SC(C)S1,-1.3679
"1,3-diacetylurea",CC(=O)NC(=O)NC(C)=O,-0.3137
tridecanoic acid,CCCCCCCCCCCCC(O)=O,-3.8126
thiometon,CCSCCS[P](=S)(OC)OC,-3.0905
fluoroacetamide,NC(=O)CF,1.1132
glycochenodeoxycholic acid,C[C@H](CCC(=O)NCC(O)=O)[C@H]1CC[C@H]2[C@@H]3[C@H](O)C[C@@H]4C[C@H](O)CC[C@]4(C)[C@H]3CC[C@]12C,-5.1546
acetyl benzoyl peroxide,CC(=O)OOC(=O)c1ccccc1,-2.4502
4-propylphenol,CCCc1ccc(O)cc1,-2.0276
"1,3,5-triazin-2(1h)-one, 4,6-diamino-",NC1=NC(=O)N=C(N)N1,-3.2291
"1,3-dioxalane",C1COCO1,1.1303
5-aminopentanoic acid,NCCCCC(O)=O,0.9313
l-homoserine,N[C@@H](CCO)C(O)=O,0.924
simetone,CCNc1nc(NCC)nc(OC)n1,-1.7898
hexamethylphosphoramide,CN(C)[P](=O)(N(C)C)N(C)C,0.7467
"ethanesulfonothioic acid, s-ethyl ester",CCS[S](=O)(=O)CC,-1.109
dibutyl dichloro tin,CCCC[Sn](Cl)(Cl)CCCC,-3.5188
"ethane, 1,2-dibromo-1,2-dichloro-",ClC(Br)C(Cl)Br,-2.5644
"acetamide, 2,2-dichloro-",NC(=O)C(Cl)Cl,-0.2558
1-nitroso-1-methylurea,CN(N=O)C(N)=O,-0.8548
"d-glucose, 2-deoxy-2-[(ethoxycarbonyl)amino]-",CCOC(=O)N[C@@H](C=O)[C@@H](O)[C@H](O)[C@H](O)CO,0.1139
1-buten-3-yne,C=CC#C,-1.4648
4-methyl-1-pentene,CC(C)CC=C,-3.2439
"2(1h)-pyridinone, 1-methyl-",CN1C=CC=CC1=O,0.9621
"benzene, iodyl-",O=[I](=O)c1ccccc1,-1.8416
"benzenamine, n,3-dimethyl-",CNc1cccc(C)c1,-2.05
3-ethyl-5-methylphenol,CCc1cc(C)cc(O)c1,-1.7696
5-methyl-2-nitrophenol,Cc1ccc(c(O)c1)[N+]([O-])=O,-2.7505
4-hydroxypteridine,O=C1N=CNc2nccnc12,-1.4716
2-pteridinamine,Nc1ncc2nccnc2n1,-2.2979
octachlorocyclopentene,ClC1=C(Cl)C(Cl)(Cl)C(Cl)(Cl)C1(Cl)Cl,-6.5362
1-methyl uric acid,CN1C(=O)NC2=C(NC(=O)N2)C1=O,-1.5614
"thiourea, 3-(nitrophenyl)-",NC(=S)Nc1cccc(c1)[N+]([O-])=O,-1.4499
"1-ph-3,5-dime-4-nitrosopyrazole",Cc1nn(c2ccccc2)c(C)c1N=O,-3.7355
anthracene-9-carboxylic acid,OC(=O)c1c2ccccc2cc3ccccc13,-3.4174
tolyfluanide,CN(C)[S](=O)(=O)N(SC(F)(Cl)Cl)c1ccc(C)cc1,-5.5864
"2,4,6-tri(tert-butyl)phenol",CC(C)(C)c1cc(c(O)c(c1)C(C)(C)C)C(C)(C)C,-3.875
bensulide,CC(C)O[P](=S)(OC(C)C)SCCN[S](=O)(=O)c1ccccc1,-4.2014
dimethyltin dichloride,C[Sn](C)(Cl)Cl,-1.0407
hexaethyl tetraphosphate,CCO[P](=O)(OCC)O[P](=O)(OCC)O[P](=O)(OCC)O[P](=O)(OCC)OCC,0.2956
n-ethyl-n-nitrosourea,CCN(N=O)C(N)=O,-0.9547
"propanedioic acid, heptyl-",CCCCCCCC(C(O)=O)C(O)=O,-2.0411
octylmalonic acid,CCCCCCCCC(C(O)=O)C(O)=O,-2.92
1-chloro-2-fluoroethane,FCCCl,-0.5291
2-methyl-1-pentene,CCCC(C)=C,-3.033
"2,5-dimethyl-2,4-hexadiene",CC(C)=CC=C(C)C,-3.537
glycidylaldehyde,O=CC1CO1,1.1423
o-chloroanisole,COc1ccccc1Cl,-2.4639
"2-amino-4,6-dimethylpyrimidine",Cc1cc(C)nc(N)n1,-0.4884
"quinoline, decahydro-",C1CC[C@@H]2NCCC[C@H]2C1,-1.0831
"9,10-dihydrophenanthrene",C1Cc2ccccc2c3ccccc13,-4.6347
"benzoic acid, 2-benzoylhydrazide",O=C(NNC(=O)c1ccccc1)c2ccccc2,-1.5883
"phosphoric acid, diethyl propyl ester",CCCO[P](=O)(OCC)OCC,0.4063
tributylphosphine oxide,CCCC[P](=O)(CCCC)CCCC,-0.5932
diethyl glutarate,CCOC(=O)CCCC(=O)OCC,-1.3297
calcium methionate,[Ca++].[O-][S](=O)(=O)C[S]([O-])(=O)=O,0.1255
4-penten-1-ol,OCCCC=C,-0.1793
"4,4'-oxydi-2-butanol",CC(O)CCOCCC(C)O,0.7899
"1,12-dodecanedicarboxylic acid",OC(=O)CCCCCCCCCCCCC(O)=O,-3.1112
"1,3-dioxolane, 2-(1-methylethyl)-",CC(C)C1OCCO1,-0.0651
"pyrimidine, 2-(methylthio)-",CSc1ncccn1,-0.402
"2,6-dimethyl-1,3-dioxan-4-ol acetate",CC1CC(OC(C)O1)OC(C)=O,0.759
"1h-purine-2,6-dione, 3,7-dihydro-1,3,8-trimethyl",CN1C(=O)N(C)c2nc(C)[nH]c2C1=O,-0.7276
"1h-purine-2,6-dione, 3,7-dihydro-1,3,7,8-tetrame",CN1C(=O)N(C)c2nc(C)n(C)c2C1=O,-1.4493
"l-tyrosine, n-acetyl-, ethyl ester",CCOC(=O)[C@H](Cc1ccc(O)cc1)NC(C)=O,-1.8586
methoproptryne,COCCCNc1nc(NC(C)C)nc(SC)n1,-2.9284
"2,4-bis((3-methoxypropyl)amino)-6-(methylthio)-s",COCCCNc1nc(NCCCOC)nc(SC)n1,-3.4792
lorazepam,OC1N=C(c2ccccc2Cl)c3cc(Cl)ccc3NC1=O,-3.6036
"androst-5-en-17-one,3-(acetyloxy),3-beta-",CC(=O)O[C@H]1CC[C@]2(C)[C@H]3CC[C@@]4(C)[C@@H](CCC4=O)[C@@H]3CC=C2C1,-4.4584
kebuzone,CC(=O)CCC1C(=O)N(N(C1=O)c2ccccc2)c3ccccc3,-3.2676
"phosphonic acid, (trichloromethyl)-, diethyl est",CCO[P](=O)(OCC)C(Cl)(Cl)Cl,-1.7541
allylidenediacetate,CC(=O)OC(OC(C)=O)C=C,-1.2449
"acetamide, n,n'-1,2-ethanediylbis-",CC(=O)NCCNC(C)=O,0.6755
"benzenemethanol, 4-bromo-",OCc1ccc(Br)cc1,-1.9295
p-chlorobenzyl alcohol,OCc1ccc(Cl)cc1,-1.7561
"2,4,6-triethoxy-s-triazine",CCOc1nc(OCC)nc(OCC)n1,-1.4838
3-nitrofluoranthene,[O-][N+](=O)c1ccc2c3ccccc3c4cccc1c24,-7.1031
methacycline,CN(C)[C@H]1[C@@H]2[C@@H](O)[C@@H]3C(=C)c4cccc(O)c4C(=C3C(=O)[C@]2(O)C(=O)\C(=C(N)/O)C1=O)O,-1.768
amidothion,COCCNC(=O)CS[P](=S)(OC)OC,-1.1356
demeton-s-methyl,CCSCCS[P](=O)(OC)OC,-1.8438
"hexanedioic acid, 2,3,3-trimethyl-",CC(C(O)=O)C(C)(C)CCC(O)=O,-1.5265
n-(hydroxymethyl)acrylamide,OCNC(=O)C=C,0.8101
"butanamide, n,n'-1,2-ethanediylbis-",CCCC(=O)NCCNC(=O)CCC,-0.6222
6-undecanone,CCCCCC(=O)CCCCC,-3.5322
butyl nitrate,CCCCO[N+]([O-])=O,-2.0268
3-hexyne,CCC#CCC,-2.1675
n-nitrosopyrrolidine,O=NN1CCCC1,0.9995
n-nitrosohexamethyleneimine,O=NN1CCCCCC1,-1.0006
"2,3,6-trichlorophenol",Oc1c(Cl)ccc(Cl)c1Cl,-2.6422
2-azacyclo-nonanone,O=C1CCCCCCCN1,0.6329
"2,3-dihydro-1,2-benzisothiazole-1,1-dioxide",O=[S]1(=O)NCc2ccccc12,-1.5208
n-benzyl-n-methylnitrosoamine,CN(Cc1ccccc1)N=O,-1.5224
"2h-1-benzopyran-2-one, 4-bromo-",BrC1=CC(=O)Oc2ccccc12,-1.6533
"2,3,4,5-tetrachloroanisole",COc1cc(Cl)c(Cl)c(Cl)c1Cl,-5.2605
p-methylphenoxyacetic acid,Cc1ccc(OCC(O)=O)cc1,-2.1414
"benzene, 1,2,3,4-tetrachloro-5,6-dimethoxy-",COc1c(Cl)c(Cl)c(Cl)c(Cl)c1OC,-5.2394
cyolane,CCO[P](=O)(OCC)N=C1SCCS1,-2.5941
"phosphoramidic acid, (4-methyl-1,3-dithiolan-2-y",CCO[P](=O)(OCC)N=C1SCC(C)S1,-3.6744
medrogestone,CC(=O)C1(C)CCC2C3C=C(C)C4=CC(=O)CCC4(C)C3CCC12C,-5.2721
methylphosphonic acid,C[P](O)(O)=O,-0.6813
"n,n-dimethylisopropylamine",CC(C)N(C)C,1.0597
"acetic acid, (nitrooxy)-, ethyl ester",CCOC(=O)CO[N+]([O-])=O,-1.7111
"glycine, n-(ethoxycarbonyl)-, ethyl ester",CCOC(=O)CNC(=O)OCC,-0.2435
2-hydroxypropyl acrylate,CC(O)COC(=O)C=C,0.8856
hydroxymethyl urea,NC(=O)NCO,-0.3463
1-pentyl nitrate,CCCCCO[N+]([O-])=O,-2.568
"2,5-dimethyltetrahydrofuran",CC1CCC(C)O1,0.0723
4-methyl-n-oxidepyridine,Cc1cc[n+]([O-])cc1,0.9621
desisopropylatrazine,CCNc1nc(N)nc(Cl)n1,-2.4135
azacycloundecan-2-one,O=C1CCCCCCCCCN1,-1.8862
desmetryne,CNc1nc(NC(C)C)nc(SC)n1,-2.5656
"1h-purine-2,6-dione, 7-butyl-3,7-dihydro-1,3-dim",CCCCn1cnc2N(C)C(=O)N(C)C(=O)c12,-1.8069
"4h-3,1-benzoxazin-4-one, 2-phenyl",O=C1OC(=Nc2ccccc12)c3ccccc3,-4.6084
heptachlor epoxide,ClC1C2OC2C3C1C4(Cl)C(=C(Cl)C3(Cl)C4(Cl)Cl)Cl,-6.2893
"phosphonic diamide, p-(5-amino-3-phenyl-1h-1,2,4",CN(C)[P](=O)(N(C)C)n1nc(nc1N)c2ccccc2,-3.0709
"glycine, n-(2,4,6-trinitrophenyl)-",OC(=O)CNc1c(cc(cc1[N+]([O-])=O)[N+]([O-])=O)[N+]([O-])=O,-2.3922
octyl gallate,CCCCCCCCOC(=O)c1cc(O)c(O)c(O)c1,-3.8945
dimethylsilanediol,C[Si](C)(O)O,1.0354
di-n-butyl tin diacetate,CCCC[Sn++]CCCC.CC([O-])=O.CC([O-])=O,-4.7672
glyphosphate,OC(=O)CNC[P](O)(O)=O,-1.2069
"1,3,4-thiadiazolidine-2,5-dithione",S=C1NNC(=S)S1,-0.7552
1-bromo-2-fluorobenzene,Fc1ccccc1Br,-2.6958
"1h-pyrazol-4-ol, 1-phenyl-",Oc1cnn(c1)c2ccccc2,-1.9616
1-phenylheptane,CCCCCCCc1ccccc1,-5.5959
hexyl p-hydroxybenzoate,CCCCCCOC(=O)c1ccc(O)cc1,-3.949
heptyl p-hydroxybenzoate,CCCCCCCOC(=O)c1ccc(O)cc1,-4.0725
dichlofluanid,CN(C)[S](=O)(=O)N(SC(F)(Cl)Cl)c1ccccc1,-5.4088
prednisolone 21-trimethylacetate,CC(C)(C)C(=O)OCC(=O)C1(O)CCC2C3CCC4=CC(=O)C=CC4(C)C3C(O)CC12C,-4.5835
dimethoxon,CNC(=O)CS[P](=O)(OC)OC,0.6712
"dl-methionine, n-acetyl-",CSCC[C@@H](NC(C)=O)C([O-])=O,-0.3216
"heptanoic acid, 2-amino-, (.+-.)-",CCCCCC(N)C(O)=O,-0.94
n-nitrosodiethanolamine,OCCN(CCO)N=O,0.8724
tri(n-octyl)amine,CCCCCCCCN(CCCCCCCC)CCCCCCCC,-6.8496
"urea, (1,1-dimethylethyl)-",CC(C)(C)NC(N)=O,-0.7306
"1,3-disiloxanediol, 1,1,3,3-tetramethyl-",C[Si](C)(O)O[Si](C)(C)O,-0.1796
"pentanedioic acid, dimethyl ester",COC(=O)CCCC(=O)OC,-0.4337
2-heptyne,CCCCC#CC,-2.7695
n-undecane,CCCCCCCCCCC,-7.5505
"2,4,5-trimethylpyridine",Cc1cc(C)c(C)cn1,-0.7824
4-dimethylaminopyridine,CN(C)c1cc[nH+]cc1,-0.2062
"pyridine, 2-ethyl-6-methyl-",CCc1cccc(C)n1,-0.8234
1-hydroxy-cyclohexanecarboxylic acid,OC(=O)C1(O)CCCCC1,-0.3328
"phenol, 4-chloro-2,6-dimethyl-",Cc1cc(Cl)cc(C)c1O,-1.6763
"pteridine, 7-chloro-",Clc1cnc2cncnc2n1,-0.8749
"1,2-benzenediol, 4-(2-propenyl)-",Oc1ccc(CC=C)cc1O,-0.7787
"1h-pyrazol-5-amine, 3-methyl-1-phenyl-",Cc1cc(N)n(n1)c2ccccc2,-0.9376
p-cyclohexylphenol,Oc1ccc(cc1)C2CCCCC2,-3.468
cycloate,CCSC(=O)N(CC)C1CCCCC1,-3.4037
diphenyltin dichloride,Cl[Sn](Cl)(c1ccccc1)c2ccccc2,-3.8373
1-butyl theobromine,CCCCN1C(=O)N(C)c2ncn(C)c2C1=O,-1.6252
tolazamide,Cc1ccc(cc1)[S](=O)(=O)NC(=O)NN2CCCCCC2,-3.6778
peruvoside,COC1[C@H](O)C(C)O[C@H](O[C@H]2CC[C@@]3(C=O)[C@H](CCC4C3CC[C@]5(C)[C@H](CC[C@]45O)C6=CC(=O)OC6)C2)C1O,-3.1373
"butanedioic acid, 2,3-diethyl-",CCC(C(CC)C(O)=O)C(O)=O,-0.8608
3-hydroxy-aspartic acid,N[C@@H]([C@@H](O)C(O)=O)C(O)=O,-0.8271
"urea, tetraethyl-",CCN(CC)C(=O)N(CC)CC,-0.6341
"l-leucine, n-acetyl-",CC(C)C[C@H](NC(C)=O)C(O)=O,-1.3301
"2,5-dihydroxybenzaldehyde",Oc1ccc(O)c(C=O)c1,-1.0004
tranexamic acid,NCC1CCC(CC1)C(O)=O,0.0255
"2,4-dimethylquinoline",Cc1cc(C)c2ccccc2n1,-1.9424
"dl-alanine, n-benzoyl-",CC(NC(=O)c1ccccc1)C(O)=O,-1.6839
methyl n-benzoglycine,COC(=O)CNC(=O)c1ccccc1,-1.0556
"10h-phenothiazine, 10-methyl-",CN1c2ccccc2Sc3ccccc13,-5.5934
"benzoic acid, 4-hydroxy, octyl ester",CCCCCCCCOC(=O)c1ccc(O)cc1,-4.2224
galaxolide,CC1COCc2cc3c(cc12)C(C)(C)C(C)C3(C)C,-5.1693
homidium bromide [ban:inn],[Br-].CC[n+]1c2cc(N)ccc2c3ccc(N)cc3c1c4ccccc4,-1.2948
2-ethylhexyl diphenyl phosphate,CCCCC(CC)CO[P](=O)(Oc1ccccc1)Oc2ccccc2,-5.2804
"3h-pyrazol-3-one, 4,4'-methylenebis[1,2-dihydro-",CN1N(C(=O)C(=C1C)CC2=C(C)N(C)N(C2=O)c3ccccc3)c4ccccc4,-2.9549
carminic acid,Cc1c(C(O)=O)c(O)cc2C(=O)c3c(O)c(O)c([C@H]4O[C@H](CO)[C@@H](O)[C@H](O)[C@H]4O)c(O)c3C(=O)c12,-2.5784
tetramethyl decynediol,CC(C)C(C)C(C)C(O)C#CC(C)C(C)O,-2.2756
carmine,Cc1c(C(O)=O)c(O)cc2C(=O)c3c(O)c(O)c(C4OC(CO)C(O)C(O)C4O)c(O)c3C(=O)c12,-2.5784
aloin,OC[C@H]1O[C@H]([C@H](O)[C@@H](O)[C@@H]1O)[C@@H]2c3cccc(O)c3C(=O)c4c(O)cc(CO)cc24,-1.7025
niclosamide ethanolamine salt,NCCO.Oc1ccc(Cl)cc1C(=O)Nc2ccc(cc2Cl)[N+]([O-])=O,-3.5891
trifenmorph,C1CN(CCO1)C(c2ccccc2)(c3ccccc3)c4ccccc4,-7.2168
dinoterb,CC(C)(C)c1cc(cc(c1O)[N+]([O-])=O)[N+]([O-])=O,-4.7274
4-(4-nitrophenylazo)phenol,[O-][N+](=O)c1ccc(NN=C2C=CC(=O)C=C2)cc1,-4.796
2-pyridinecarboxamide,NC(=O)c1ccccn1,0.1685
heptadecyl alcohol,CCCCCCCCCCCCCCCCCO,-7.506
"2,6-dimethyl-n-nitrosomorpholine",CC1CN(CC(C)O1)N=O,-0.0655
"pyridine, 2,3,6-trimethyl-",Cc1ccc(C)c(C)n1,-0.5893
5-indanol,Oc1ccc2CCCc2c1,-1.3285
"1,4-dichloro-2-butene(cis)",ClC\C=C/CCl,-2.3333
"piperidine, 3-ethyl-,",CC[C@@H]1CCCCN1,-0.3463
"cyclohexanone, 2-(1-cyclohexen-1-yl)-",O=C1CCCCC1C2=CCCCC2,-2.774
2-(acetyloxy)-4-bromo-benzoic acid,CC(=O)Oc1ccc(Br)cc1C(O)=O,-2.5895
"n,n-diethyl succinamic acid",CCN(CC)C(=O)CCC(O)=O,-0.7937
"urea, (4-methoxyphenyl)-",COc1ccc(NC(N)=O)cc1,-1.5917
4-methoxy-2-nitrophenol,COc1ccc(O)c(c1)[N+]([O-])=O,-2.8409
1-propoxy-2-propanol,CCCOCC(C)O,0.9275
3-penten-2-ol,C/C=C/C(C)O,0.0152
2-methyl-4-chlorophenol,Cc1cc(Cl)ccc1O,-1.5519999999999998
"4,6-dichloro-o-cresol",Cc1cc(Cl)cc(Cl)c1O,-2.0439
"benzamide, 3-(aminosulfonyl)-",NC(=O)c1cccc(c1)[S](N)(=O)=O,-2.1554
"2-propenoic acid, 3,3-dibromo-",OC(=O)C=C(Br)Br,-0.8358
"urea, n,n''-ethylidenebis-",CC(NC(N)=O)NC(N)=O,-0.5916
"hydrazinecarboxamide, 2-cyclohexylidene-",NC(=O)NN=C1CCCCC1,-1.4127
"2-naphthalenebutanoic acid, .gamma.-oxo-",OC(=O)CCC(=O)c1ccc2ccccc2c1,-3.8533
daminozide,CN(C)NC(=O)CCC(O)=O,-0.2046
pentrinitrol,OCC(CO[N+]([O-])=O)(CO[N+]([O-])=O)CO[N+]([O-])=O,-1.585
atratone,CCNc1nc(NC(C)C)nc(OC)n1,-2.0696
"2,4-pentadienenitrile",C=C\C=C/C#N,-0.7221
malaoxon,CCOC(=O)CC(S[P](=O)(OC)OC)C(=O)OCC,-1.6223
1-heptanethiol,CCCCCCCS,-4.1549
aldicarb sulfoxide,CNC(=O)O\N=C\C(C)(C)[S](C)=O,-0.8673
aldicarb sulfone,CNC(=O)O\N=C\C(C)(C)[S](C)(=O)=O,-1.3469
"1,2-dichloro-1,1-difluoroethane",FC(F)(Cl)CCl,-2.2007
2-undecanol,CCCCCCCCCC(C)O,-2.9418
"1-heptanol, 6-methyl-",CC(C)CCCCCO,-2.3038
"1,10-phenanthroline, 3,4,7,8-tetramethyl-",Cc1cnc2c(ccc3c(C)c(C)cnc23)c1C,-5.1939
doxepin,CN(C)CC\C=C1/c2ccccc2COc3ccccc13,-3.9469
ethylcyclohexane,CCC1CCCCC1,-4.2507
alpha-pinene oxide,CC1(C)C2CC3OC3(C)C1C2,-2.5937
"1(3h)isobenzofuranone-3,3-dimethyl",CC1(C)OC(=O)c2ccccc12,-1.8684
p-phenylazophenol,O=C1C=CC(C=C1)=NNc2ccccc2,-3.3429
bromoxynil,Oc1c(Br)cc(cc1Br)C#N,-3.3284
bromoxynil octanoate,CCCCCCCC(=O)Oc1c(Br)cc(cc1Br)C#N,-6.7023
"2-phenyl-4,5-dichloro-3-pyridazinone",ClC1=C(Cl)C(=O)N(N=C1)c2ccccc2,-3.3822
chloridazon,NC1=C(Cl)C(=O)N(N=C1)c2ccccc2,-2.7436
"3,6-dichloropicolinic acid",OC(=O)c1nc(Cl)ccc1Cl,-1.3884
6-methylchrysene,Cc1cc2c3ccccc3ccc2c4ccccc14,-6.5715
isopropyl nitrate,CC(C)O[N+]([O-])=O,-1.4593
"1,1-dichlorofluoroethane",CC(F)(Cl)Cl,-2.4448
"10h-phenothiazine, 2-chloro-7-methoxy-",COc1ccc2Nc3cc(Cl)ccc3Sc2c1,-4.9787
dehydroabietic acid,CC(C)c1ccc2c(CC[C@H]3[C@@](C)(CCC[C@]23C)C(O)=O)c1,-4.6582
"[1,2,4,5]tetrazino[1,2-a][1,2,4,5]tetrazine, oct",C1NNCN2CNNCN12,-0.0128
nicotinanilide,O=C(Nc1ccccc1)c2cccnc2,-3.093
"1,2,3-benzothiadiazol-5-amine",Nc1ccc2snnc2c1,-1.3045
"thiocyanic acid, ammonium salt",[NH4+].[S-]C#N,0.9178
"benzenemethanol, 2,4-dichloro-",OCc1ccc(Cl)cc1Cl,-2.248
"methane, chloronitro-",[O-][N+](=O)CCl,-0.281
"propanal, 2-(hydroxyimino)-, oxime",C\C(NO)=C/N=O,-0.3462
"3,4-dichlorobenzyl alcohol",OCc1ccc(Cl)c(Cl)c1,-2.0439
dibutyl phosphite,CCCCO[P+](=O)OCCCC,-1.4249
"1,4-dichloronaphthalene",Clc1ccc(Cl)c2ccccc12,-5.3576
"2-[(6-chloro-3-pyridazinyl)thio]-n,n-diethylacet",CCN(CC)C(=O)CSc1ccc(Cl)nn1,-1.7156
nitrofen,[O-][N+](=O)c1ccc(Oc2ccc(Cl)cc2Cl)cc1,-5.4535
chlornitrofen,[O-][N+](=O)c1ccc(Oc2c(Cl)cc(Cl)cc2Cl)cc1,-5.6201
"4-heptanol, 3-methyl-",CCCC(O)C(C)CC,-1.8406
fluspirilene,Fc1ccc(cc1)C(CCCN2CCC3(CC2)N(CNC3=O)c4ccccc4)c5ccc(F)cc5,-4.6772
undecanedioic acid,OC(=O)CCCCCCCCCC(O)=O,-1.6274
dimethyl tetrachloroterephthalate,COC(=O)c1c(Cl)c(Cl)c(c(Cl)c1Cl)C(=O)OC,-5.8221
tritac,CC(O)COCc1c(Cl)ccc(Cl)c1Cl,-3.5673
ketamine,[H+].[Cl-].CNC1(CCCCC1=O)c2ccccc2Cl,-0.1369999999999999
"phenol, 4-chloro-3,5-dimethyl-2-(phenylmethyl)-",Cc1cc(O)c(Cc2ccccc2)c(C)c1Cl,-4.3009
"ethanediamide, n,n'-bis(2-hydroxyethyl)-",OCCNC(=O)C(=O)NCCO,-0.1124
psicofuranine,Nc1ncnc2n(cnc12)[C@]3(CO)O[C@H](CO)[C@@H](O)[C@H]3O,-1.5701
o-methylphenoxyacetic acid,Cc1ccccc1OCC(O)=O,-2.4424
o-nitrophenoxyacetic acid,OC(=O)COc1ccccc1[N+]([O-])=O,-2.016
di-tert-butylsulfone,CC(C)(C)[S](=O)(=O)C(C)(C)C,-1.2177
perchloropropylene,ClC(Cl)=C(Cl)C(Cl)(Cl)Cl,-4.1651
"2-furancarboxaldehyde, 5-bromo-",Brc1oc(C=O)cc1,-1.544
ipazine,CCN(CC)c1nc(Cl)nc(NC(C)C)n1,-3.7849
"2-furancarboxylic acid, 5-methyl-",Cc1oc(cc1)C(O)=O,-0.8243
"2-furancarboxaldehyde, 5-(methoxymethyl)-",COCc1oc(C=O)cc1,-0.4992
picloram,Nc1c(Cl)c(Cl)nc(C(O)=O)c1Cl,-2.7494
dipropalin,CCCN(CCC)c1c(cc(C)cc1[N+]([O-])=O)[N+]([O-])=O,-2.9663
"2,6-di-t-butyl-p-tolyl methylcarbamate",CNC(=O)Oc1c(cc(C)cc1C(C)(C)C)C(C)(C)C,-4.598
10h-phenothiazin-3-ol,Oc1ccc2Nc3ccccc3Sc2c1,-2.5748
"2,4-d, methyl ester",COC(=O)COc1ccc(Cl)cc1Cl,-2.9596
"2,4,5-t, ethyl ester",CCOC(=O)COc1cc(Cl)c(Cl)cc1Cl,-4.8493
"2,4-d, octyl ester",CCCCCCCCOC(=O)COc1ccc(Cl)cc1Cl,-7.0217
"2,4-d, propyl ester",CCCOC(=O)COc1ccc(Cl)cc1Cl,-4.2502
p-meo-b-phenylpropionic acid,COc1ccc(CCC(O)=O)cc1,-2.2144
"2,4-d, butoxyethyl ester",CCCCOCCOC(=O)COc1ccc(Cl)cc1Cl,-4.4276
benzthiazuron,CNC(=O)Nc1sc2ccccc2n1,-4.2373
chlorotrinitromethane,[O-][N+](=O)C(Cl)([N+]([O-])=O)[N+]([O-])=O,-1.9259
"1,2-cyclohexanediol, 1-methyl-4-(1-methylethenyl",CC(=C)C1CCC(C)(O)C(O)C1,-0.2311
propane-1-thiosulfinic acid s-propyl ester,CCCS[S](=O)CCC,-0.9199
"1,3-benzenedicarboxylic acid, 2-methoxy-",COc1c(cccc1C(O)=O)C(O)=O,-2.2926
"propanoic acid, 4-nitrophenyl ester",CCC(=O)Oc1ccc(cc1)[N+]([O-])=O,-3.8925
"pentanoic acid, 4-nitrophenyl ester",CCCCC(=O)Oc1ccc(cc1)[N+]([O-])=O,-4.3945
"l-valine, n-glycyl-",CC(C)C(NC(=O)CN)C(O)=O,0.4579
"hexanediamide, n,n'-bis(2-hydroxyethyl)-",OCCNC(=O)CCCCC(=O)NCCO,0.4121
"3,4-dichlorobenzyl methylcarbamate",CNC(=O)OCc1ccc(Cl)c(Cl)c1,-3.1389
chlorbufam,CC(OC(=O)Nc1cccc(Cl)c1)C#C,-2.6172
p-bromophenylurea,NC(=O)Nc1ccc(Br)cc1,-1.6336
1-bromo-2-ethylbenzene,CCc1ccccc1Br,-3.6702
chloroxuron,CN(C)C(=O)Nc1ccc(Oc2ccc(Cl)cc2)cc1,-4.8953
siduron,CC1CCCCC1NC(=O)Nc2ccccc2,-4.1108
"benzene, 1,2-dichloro-3-methoxy-",COc1cccc(Cl)c1Cl,-3.309
"benzene, 1,3-dichloro-2-methoxy-",COc1c(Cl)cccc1Cl,-3.1019
"2-propenamide, 3-(2-nitrophenyl)-",NC(=O)C=Cc1ccccc1[N+]([O-])=O,-1.2837
"1h-purine, 6-methyl-",Cc1ncnc2nc[nH]c12,0.1735
butylate,CCSC(=O)N(CC(C)C)CC(C)C,-3.684
"4-imidazolidinone, 3-phenyl-2-thioxo-",O=C1CNC(=S)N1c2ccccc2,-3.2425
n-decylamine,CCCCCCCCCCN,-2.4564
ethyl b-phenylpropionate,CCOC(=O)CCc1ccccc1,-2.9086
aminocarb,CNC(=O)Oc1ccc(N(C)C)c(C)c1,-2.3572
methiocarb,CNC(=O)Oc1cc(C)c(SC)c(C)c1,-3.9214
propylcyclopentane,CCCC1CCCC1,-4.7404
"propanamide, 2-hydroxy-",CC(O)C(N)=O,0.9435
diethyl pimelate,CCOC(=O)CCCCCC(=O)OCC,-2.0408
diethyl suberate,CCOC(=O)CCCCCCC(=O)OCC,-2.5304
"1,2-dichloronaphthalene",Clc1ccc2ccccc2c1Cl,-6.1611